timestamp,value,is_anomaly,anomaly_score,S(t)_reward_low_FP_rate,S(t)_reward_low_FN_rate,S(t)_standard,predicted_anomaly
2014-01-16 00:00:00,0.735536320576,0,0.5,0.0,0.0,0.0,0
2014-01-16 00:05:00,0.733096756234,0,0.5,0.0,0.0,0.0,0
2014-01-16 00:10:00,0.733068261772,0,0.5,0.0,0.0,0.0,0
2014-01-16 00:15:00,0.730626505549,0,0.5,0.0,0.0,0.0,0
2014-01-16 00:20:00,0.733068261772,0,0.5,0.0,0.0,0.0,0
2014-01-16 00:25:00,0.733068261772,0,0.5,0.0,0.0,0.0,0
2014-01-16 00:30:00,0.733096756234,0,0.5,0.0,0.0,0.0,0
2014-01-16 00:35:00,0.733024424138,0,0.5,0.0,0.0,0.0,0
2014-01-16 00:40:00,0.730626505549,0,0.5,0.0,0.0,0.0,0
2014-01-16 00:45:00,0.735463988479,0,0.5,0.0,0.0,0.0,0
2014-01-16 00:50:00,0.730626505549,0,0.5,0.0,0.0,0.0,0
2014-01-16 00:55:00,0.733024424138,0,0.5,0.0,0.0,0.0,0
2014-01-16 01:00:00,0.733024424138,0,0.5,0.0,0.0,0.0,0
2014-01-16 01:05:00,0.735536320576,0,0.5,0.0,0.0,0.0,0
2014-01-16 01:10:00,0.730626505549,0,0.5,0.0,0.0,0.0,0
2014-01-16 01:15:00,0.733068261772,0,0.5,0.0,0.0,0.0,0
2014-01-16 01:20:00,0.733096756234,0,0.5,0.0,0.0,0.0,0
2014-01-16 01:25:00,0.730626505549,0,0.5,0.0,0.0,0.0,0
2014-01-16 01:30:00,0.735492482942,0,0.5,0.0,0.0,0.0,0
2014-01-16 01:35:00,0.730626505549,0,0.5,0.0,0.0,0.0,0
2014-01-16 01:40:00,0.737890401531,0,0.5,0.0,0.0,0.0,0
2014-01-16 01:45:00,0.730626505549,0,0.5,0.0,0.0,0.0,0
2014-01-16 01:50:00,0.730626505549,0,0.5,0.0,0.0,0.0,0
2014-01-16 01:55:00,0.73556700692,0,0.5,0.0,0.0,0.0,0
2014-01-16 02:00:00,0.73556700692,0,0.5,0.0,0.0,0.0,0
2014-01-16 02:05:00,0.730626505549,0,0.5,0.0,0.0,0.0,0
2014-01-16 02:10:00,0.733068261772,0,0.5,0.0,0.0,0.0,0
2014-01-16 02:15:00,0.733024424138,0,0.5,0.0,0.0,0.0,0
2014-01-16 02:20:00,0.730626505549,0,0.5,0.0,0.0,0.0,0
2014-01-16 02:25:00,0.735463988479,0,0.5,0.0,0.0,0.0,0
2014-01-16 02:30:00,0.730626505549,0,0.5,0.0,0.0,0.0,0
2014-01-16 02:35:00,0.733068261772,0,0.5,0.0,0.0,0.0,0
2014-01-16 02:40:00,0.733068261772,0,0.5,0.0,0.0,0.0,0
2014-01-16 02:45:00,0.733096756234,0,0.5,0.0,0.0,0.0,0
2014-01-16 02:50:00,0.733024424138,0,0.5,0.0,0.0,0.0,0
2014-01-16 02:55:00,0.730626505549,0,0.5,0.0,0.0,0.0,0
2014-01-16 03:00:00,0.73556700692,0,0.5,0.0,0.0,0.0,0
2014-01-16 03:05:00,0.772024575378,0,0.5,0.0,0.0,0.0,0
2014-01-16 03:10:00,0.730626505549,0,0.5,0.0,0.0,0.0,0
2014-01-16 03:15:00,0.730626505549,0,0.5,0.0,0.0,0.0,0
2014-01-16 03:20:00,0.735492482942,0,0.5,0.0,0.0,0.0,0
2014-01-16 03:25:00,0.730626505549,0,0.5,0.0,0.0,0.0,0
2014-01-16 03:30:00,0.772653645428,0,0.5,0.0,0.0,0.0,0
2014-01-16 03:35:00,0.730626505549,0,0.5,0.0,0.0,0.0,0
2014-01-16 03:40:00,0.733068261772,0,0.5,0.0,0.0,0.0,0
2014-01-16 03:45:00,0.733068261772,0,0.5,0.0,0.0,0.0,0
2014-01-16 03:50:00,0.733068261772,0,0.5,0.0,0.0,0.0,0
2014-01-16 03:55:00,0.733068261772,0,0.5,0.0,0.0,0.0,0
2014-01-16 04:00:00,0.735463988479,0,0.5,0.0,0.0,0.0,0
2014-01-16 04:05:00,0.730626505549,0,0.5,0.0,0.0,0.0,0
2014-01-16 04:10:00,0.733024424138,0,0.5,0.0,0.0,0.0,0
2014-01-16 04:15:00,0.733068261772,0,0.5,0.0,0.0,0.0,0
2014-01-16 04:20:00,0.735536320576,0,0.5,0.0,0.0,0.0,0
2014-01-16 04:25:00,0.730626505549,0,0.5,0.0,0.0,0.0,0
2014-01-16 04:30:00,0.733024424138,0,0.5,0.0,0.0,0.0,0
2014-01-16 04:35:00,0.733068261772,0,0.5,0.0,0.0,0.0,0
2014-01-16 04:40:00,0.733024424138,0,0.5,0.0,0.0,0.0,0
2014-01-16 04:45:00,0.733096756234,0,0.5,0.0,0.0,0.0,0
2014-01-16 04:50:00,0.730626505549,0,0.5,0.0,0.0,0.0,0
2014-01-16 04:55:00,0.733024424138,0,0.5,0.0,0.0,0.0,0
2014-01-16 05:00:00,0.733024424138,0,0.5,0.0,0.0,0.0,0
2014-01-16 05:05:00,0.735536320576,0,0.5,0.0,0.0,0.0,0
2014-01-16 05:10:00,0.730626505549,0,0.5,0.0,0.0,0.0,0
2014-01-16 05:15:00,0.733096756234,0,0.5,0.0,0.0,0.0,0
2014-01-16 05:20:00,0.733096756234,0,0.5,0.0,0.0,0.0,0
2014-01-16 05:25:00,0.733068261772,0,0.5,0.0,0.0,0.0,0
2014-01-16 05:30:00,0.733096756234,0,0.5,0.0,0.0,0.0,0
2014-01-16 05:35:00,0.730626505549,0,0.5,0.0,0.0,0.0,0
2014-01-16 05:40:00,0.735463988479,0,0.5,0.0,0.0,0.0,0
2014-01-16 05:45:00,0.730626505549,0,0.5,0.0,0.0,0.0,0
2014-01-16 05:50:00,0.735492482942,0,0.5,0.0,0.0,0.0,0
2014-01-16 05:55:00,0.730626505549,0,0.5,0.0,0.0,0.0,0
2014-01-16 06:00:00,0.735463988479,0,0.5,0.0,0.0,0.0,0
2014-01-16 06:05:00,0.730626505549,0,0.5,0.0,0.0,0.0,0
2014-01-16 06:10:00,0.735492482942,0,0.5,0.0,0.0,0.0,0
2014-01-16 06:15:00,0.730626505549,0,0.5,0.0,0.0,0.0,0
2014-01-16 06:20:00,0.730626505549,0,0.5,0.0,0.0,0.0,0
2014-01-16 06:25:00,0.735492482942,0,0.5,0.0,0.0,0.0,0
2014-01-16 06:30:00,0.730626505549,0,0.5,0.0,0.0,0.0,0
2014-01-16 06:35:00,0.733068261772,0,0.5,0.0,0.0,0.0,0
2014-01-16 06:40:00,0.733024424138,0,0.5,0.0,0.0,0.0,0
2014-01-16 06:45:00,0.733068261772,0,0.5,0.0,0.0,0.0,0
2014-01-16 06:50:00,0.733096756234,0,0.5,0.0,0.0,0.0,0
2014-01-16 06:55:00,0.730626505549,0,0.5,0.0,0.0,0.0,0
2014-01-16 07:00:00,0.735507826114,0,0.5,0.0,0.0,0.0,0
2014-01-16 07:05:00,0.733096756234,0,0.5,0.0,0.0,0.0,0
2014-01-16 07:10:00,0.733068261772,0,0.5,0.0,0.0,0.0,0
2014-01-16 07:15:00,0.730626505549,0,0.5,0.0,0.0,0.0,0
2014-01-16 07:20:00,0.733096756234,0,0.5,0.0,0.0,0.0,0
2014-01-16 07:25:00,0.733024424138,0,0.5,0.0,0.0,0.0,0
2014-01-16 07:30:00,0.733068261772,0,0.5,0.0,0.0,0.0,0
2014-01-16 07:35:00,0.733096756234,0,0.5,0.0,0.0,0.0,0
2014-01-16 07:40:00,0.733096756234,0,0.5,0.0,0.0,0.0,0
2014-01-16 07:45:00,0.730626505549,0,0.5,0.0,0.0,0.0,0
2014-01-16 07:50:00,0.735463988479,0,0.5,0.0,0.0,0.0,0
2014-01-16 07:55:00,0.730626505549,0,0.5,0.0,0.0,0.0,0
2014-01-16 08:00:00,0.735492482942,0,0.5,0.0,0.0,0.0,0
2014-01-16 08:05:00,0.733068261772,0,0.5,0.0,0.0,0.0,0
2014-01-16 08:10:00,0.735536320576,0,0.5,0.0,0.0,0.0,0
2014-01-16 08:15:00,0.730626505549,0,0.5,0.0,0.0,0.0,0
2014-01-16 08:20:00,0.733068261772,0,0.5,0.0,0.0,0.0,0
2014-01-16 08:25:00,0.733024424138,0,0.5,0.0,0.0,0.0,0
2014-01-16 08:30:00,0.730626505549,0,0.5,0.0,0.0,0.0,0
2014-01-16 08:35:00,0.735507826114,0,0.5,0.0,0.0,0.0,0
2014-01-16 08:40:00,0.730626505549,0,0.5,0.0,0.0,0.0,0
2014-01-16 08:45:00,0.733096756234,0,0.5,0.0,0.0,0.0,0
2014-01-16 08:50:00,0.733096756234,0,0.5,0.0,0.0,0.0,0
2014-01-16 08:55:00,0.730626505549,0,0.5,0.0,0.0,0.0,0
2014-01-16 09:00:00,0.735536320576,0,0.5,0.0,0.0,0.0,0
2014-01-16 09:05:00,0.733096756234,0,0.5,0.0,0.0,0.0,0
2014-01-16 09:10:00,0.733024424138,0,0.5,0.0,0.0,0.0,0
2014-01-16 09:15:00,0.730626505549,0,0.5,0.0,0.0,0.0,0
2014-01-16 09:20:00,0.73556700692,0,0.5,0.0,0.0,0.0,0
2014-01-16 09:25:00,0.730626505549,0,0.5,0.0,0.0,0.0,0
2014-01-16 09:30:00,0.735507826114,0,0.5,0.0,0.0,0.0,0
2014-01-16 09:35:00,0.730626505549,0,0.5,0.0,0.0,0.0,0
2014-01-16 09:40:00,0.730626505549,0,0.5,0.0,0.0,0.0,0
2014-01-16 09:45:00,0.735536320576,0,0.5,0.0,0.0,0.0,0
2014-01-16 09:50:00,0.730626505549,0,0.5,0.0,0.0,0.0,0
2014-01-16 09:55:00,0.735463988479,0,0.5,0.0,0.0,0.0,0
2014-01-16 10:00:00,0.730626505549,0,0.5,0.0,0.0,0.0,0
2014-01-16 10:05:00,0.735507826114,0,0.5,0.0,0.0,0.0,0
2014-01-16 10:10:00,0.730626505549,0,0.5,0.0,0.0,0.0,0
2014-01-16 10:15:00,0.735463988479,0,0.5,0.0,0.0,0.0,0
2014-01-16 10:20:00,0.730626505549,0,0.5,0.0,0.0,0.0,0
2014-01-16 10:25:00,0.730626505549,0,0.5,0.0,0.0,0.0,0
2014-01-16 10:30:00,0.73556700692,0,0.5,0.0,0.0,0.0,0
2014-01-16 10:35:00,0.730626505549,0,0.5,0.0,0.0,0.0,0
2014-01-16 10:40:00,0.735507826114,0,0.5,0.0,0.0,0.0,0
2014-01-16 10:45:00,0.730626505549,0,0.5,0.0,0.0,0.0,0
2014-01-16 10:50:00,0.730626505549,0,0.5,0.0,0.0,0.0,0
2014-01-16 10:55:00,0.738050408896,0,0.5,0.0,0.0,0.0,0
2014-01-16 11:00:00,0.735463988479,0,0.5,0.0,0.0,0.0,0
2014-01-16 11:05:00,0.730626505549,0,0.5,0.0,0.0,0.0,0
2014-01-16 11:10:00,0.733024424138,0,0.5,0.0,0.0,0.0,0
2014-01-16 11:15:00,0.76226412613,0,0.5,0.0,0.0,0.0,0
2014-01-16 11:20:00,0.755147086222,0,0.5,0.0,0.0,0.0,0
2014-01-16 11:25:00,0.749915064584,0,0.5,0.0,0.0,0.0,0
2014-01-16 11:30:00,0.733024424138,0,0.5,0.0,0.0,0.0,0
2014-01-16 11:35:00,0.733024424138,0,0.5,0.0,0.0,0.0,0
2014-01-16 11:40:00,0.730626505549,0,0.5,0.0,0.0,0.0,0
2014-01-16 11:45:00,0.733068261772,0,0.5,0.0,0.0,0.0,0
2014-01-16 11:50:00,0.733024424138,0,0.5,0.0,0.0,0.0,0
2014-01-16 11:55:00,0.733068261772,0,0.5,0.0,0.0,0.0,0
2014-01-16 12:00:00,0.735420150845,0,0.5,0.0,0.0,0.0,0
2014-01-16 12:05:00,0.733068261772,0,0.5,0.0,0.0,0.0,0
2014-01-16 12:10:00,0.730626505549,0,0.5,0.0,0.0,0.0,0
2014-01-16 12:15:00,0.735420150845,0,0.5,0.0,0.0,0.0,0
2014-01-16 12:20:00,0.730626505549,0,0.5,0.0,0.0,0.0,0
2014-01-16 12:25:00,0.735536320576,0,0.5,0.0,0.0,0.0,0
2014-01-16 12:30:00,0.730626505549,0,0.5,0.0,0.0,0.0,0
2014-01-16 12:35:00,0.730626505549,0,0.5,0.0,0.0,0.0,0
2014-01-16 12:40:00,0.735463988479,0,0.5,0.0,0.0,0.0,0
2014-01-16 12:45:00,0.730626505549,0,0.5,0.0,0.0,0.0,0
2014-01-16 12:50:00,0.735463988479,0,0.5,0.0,0.0,0.0,0
2014-01-16 12:55:00,0.730626505549,0,0.5,0.0,0.0,0.0,0
2014-01-16 13:00:00,0.735420150845,0,0.5,0.0,0.0,0.0,0
2014-01-16 13:05:00,0.730626505549,0,0.5,0.0,0.0,0.0,0
2014-01-16 13:10:00,0.735420150845,0,0.5,0.0,0.0,0.0,0
2014-01-16 13:15:00,0.730626505549,0,0.5,0.0,0.0,0.0,0
2014-01-16 13:20:00,0.733024424138,0,0.5,0.0,0.0,0.0,0
2014-01-16 13:25:00,0.733068261772,0,0.5,0.0,0.0,0.0,0
2014-01-16 13:30:00,0.733096756234,0,0.5,0.0,0.0,0.0,0
2014-01-16 13:35:00,0.733024424138,0,0.5,0.0,0.0,0.0,0
2014-01-16 13:40:00,0.730626505549,0,0.5,0.0,0.0,0.0,0
2014-01-16 13:45:00,0.733068261772,0,0.5,0.0,0.0,0.0,0
2014-01-16 13:50:00,0.733096756234,0,0.5,0.0,0.0,0.0,0
2014-01-16 13:55:00,0.733024424138,0,0.5,0.0,0.0,0.0,0
2014-01-16 14:00:00,0.733068261772,0,0.5,0.0,0.0,0.0,0
2014-01-16 14:05:00,0.733068261772,0,0.5,0.0,0.0,0.0,0
2014-01-16 14:10:00,0.733024424138,0,0.5,0.0,0.0,0.0,0
2014-01-16 14:15:00,0.742800216558,0,0.5,0.0,0.0,0.0,0
2014-01-16 14:20:00,0.742681854946,0,0.5,0.0,0.0,0.0,0
2014-01-16 14:25:00,0.730626505549,0,0.5,0.0,0.0,0.0,0
2014-01-16 14:30:00,0.735536320576,0,0.5,0.0,0.0,0.0,0
2014-01-16 14:35:00,0.730626505549,0,0.5,0.0,0.0,0.0,0
2014-01-16 14:40:00,0.733068261772,0,0.5,0.0,0.0,0.0,0
2014-01-16 14:45:00,0.733096756234,0,0.5,0.0,0.0,0.0,0
2014-01-16 14:50:00,0.733096756234,0,0.5,0.0,0.0,0.0,0
2014-01-16 14:55:00,0.733096756234,0,0.5,0.0,0.0,0.0,0
2014-01-16 15:00:00,0.733024424138,0,0.5,0.0,0.0,0.0,0
2014-01-16 15:05:00,0.733024424138,0,0.5,0.0,0.0,0.0,0
2014-01-16 15:10:00,0.733096756234,0,0.5,0.0,0.0,0.0,0
2014-01-16 15:15:00,0.730626505549,0,0.5,0.0,0.0,0.0,0
2014-01-16 15:20:00,0.733068261772,0,0.5,0.0,0.0,0.0,0
2014-01-16 15:25:00,0.733024424138,0,0.5,0.0,0.0,0.0,0
2014-01-16 15:30:00,0.733096756234,0,0.5,0.0,0.0,0.0,0
2014-01-16 15:35:00,0.733096756234,0,0.5,0.0,0.0,0.0,0
2014-01-16 15:40:00,0.730626505549,0,0.5,0.0,0.0,0.0,0
2014-01-16 15:45:00,0.735536320576,0,0.5,0.0,0.0,0.0,0
2014-01-16 15:50:00,0.730626505549,0,0.5,0.0,0.0,0.0,0
2014-01-16 15:55:00,0.733096756234,0,0.5,0.0,0.0,0.0,0
2014-01-16 16:00:00,0.733096756234,0,0.5,0.0,0.0,0.0,0
2014-01-16 16:05:00,0.733096756234,0,0.5,0.0,0.0,0.0,0
2014-01-16 16:10:00,0.733024424138,0,0.5,0.0,0.0,0.0,0
2014-01-16 16:15:00,0.733096756234,0,0.5,0.0,0.0,0.0,0
2014-01-16 16:20:00,0.733068261772,0,0.5,0.0,0.0,0.0,0
2014-01-16 16:25:00,0.730626505549,0,0.5,0.0,0.0,0.0,0
2014-01-16 16:30:00,0.73556700692,0,0.5,0.0,0.0,0.0,0
2014-01-16 16:35:00,0.730626505549,0,0.5,0.0,0.0,0.0,0
2014-01-16 16:40:00,0.733068261772,0,0.5,0.0,0.0,0.0,0
2014-01-16 16:45:00,0.733024424138,0,0.5,0.0,0.0,0.0,0
2014-01-16 16:50:00,0.730626505549,0,0.5,0.0,0.0,0.0,0
2014-01-16 16:55:00,0.735420150845,0,0.5,0.0,0.0,0.0,0
2014-01-16 17:00:00,0.733068261772,0,0.5,0.0,0.0,0.0,0
2014-01-16 17:05:00,0.733024424138,0,0.5,0.0,0.0,0.0,0
2014-01-16 17:10:00,0.730626505549,0,0.5,0.0,0.0,0.0,0
2014-01-16 17:15:00,0.735536320576,0,0.5,0.0,0.0,0.0,0
2014-01-16 17:20:00,0.730626505549,0,0.5,0.0,0.0,0.0,0
2014-01-16 17:25:00,0.735507826114,0,0.5,0.0,0.0,0.0,0
2014-01-16 17:30:00,0.730626505549,0,0.5,0.0,0.0,0.0,0
2014-01-16 17:35:00,0.730626505549,0,0.5,0.0,0.0,0.0,0
2014-01-16 17:40:00,0.737962733627,0,0.5,0.0,0.0,0.0,0
2014-01-16 17:45:00,0.730626505549,0,0.5,0.0,0.0,0.0,0
2014-01-16 17:50:00,0.735492482942,0,0.5,0.0,0.0,0.0,0
2014-01-16 17:55:00,0.730626505549,0,0.5,0.0,0.0,0.0,0
2014-01-16 18:00:00,0.735420150845,0,0.5,0.0,0.0,0.0,0
2014-01-16 18:05:00,0.730626505549,0,0.5,0.0,0.0,0.0,0
2014-01-16 18:10:00,0.735507826114,0,0.5,0.0,0.0,0.0,0
2014-01-16 18:15:00,0.730626505549,0,0.5,0.0,0.0,0.0,0
2014-01-16 18:20:00,0.735507826114,0,0.5,0.0,0.0,0.0,0
2014-01-16 18:25:00,0.730626505549,0,0.5,0.0,0.0,0.0,0
2014-01-16 18:30:00,0.733068261772,0,0.5,0.0,0.0,0.0,0
2014-01-16 18:35:00,0.733024424138,0,0.5,0.0,0.0,0.0,0
2014-01-16 18:40:00,0.199261993429,0,0.5,0.0,0.0,0.0,0
2014-01-16 18:45:00,0.631465777055,0,0.5,0.0,0.0,0.0,0
2014-01-16 18:50:00,0.730626505549,0,0.5,0.0,0.0,0.0,0
2014-01-16 18:55:00,0.733024424138,0,0.5,0.0,0.0,0.0,0
2014-01-16 19:00:00,0.77414412499,0,0.5,0.0,0.0,0.0,0
2014-01-16 19:05:00,0.752720673171,0,0.5,0.0,0.0,0.0,0
2014-01-16 19:10:00,0.769598162326,0,0.5,0.0,0.0,0.0,0
2014-01-16 19:15:00,0.733096756234,0,0.5,0.0,0.0,0.0,0
2014-01-16 19:20:00,0.733096756234,0,0.5,0.0,0.0,0.0,0
2014-01-16 19:25:00,0.730626505549,0,0.5,0.0,0.0,0.0,0
2014-01-16 19:30:00,0.735492482942,0,0.5,0.0,0.0,0.0,0
2014-01-16 19:35:00,0.730626505549,0,0.5,0.0,0.0,0.0,0
2014-01-16 19:40:00,0.733024424138,0,0.5,0.0,0.0,0.0,0
2014-01-16 19:45:00,0.733068261772,0,0.5,0.0,0.0,0.0,0
2014-01-16 19:50:00,0.733024424138,0,0.5,0.0,0.0,0.0,0
2014-01-16 19:55:00,0.733068261772,0,0.5,0.0,0.0,0.0,0
2014-01-16 20:00:00,0.735420150845,0,0.5,0.0,0.0,0.0,0
2014-01-16 20:05:00,0.730626505549,0,0.5,0.0,0.0,0.0,0
2014-01-16 20:10:00,0.733068261772,0,0.5,0.0,0.0,0.0,0
2014-01-16 20:15:00,0.733068261772,0,0.5,0.0,0.0,0.0,0
2014-01-16 20:20:00,0.733096756234,0,0.5,0.0,0.0,0.0,0
2014-01-16 20:25:00,0.750309603291,0,0.5,0.0,0.0,0.0,0
2014-01-16 20:30:00,0.735492482942,0,0.5,0.0,0.0,0.0,0
2014-01-16 20:35:00,0.730626505549,0,0.5,0.0,0.0,0.0,0
2014-01-16 20:40:00,0.733068261772,0,0.5,0.0,0.0,0.0,0
2014-01-16 20:45:00,0.733024424138,0,0.5,0.0,0.0,0.0,0
2014-01-16 20:50:00,0.733068261772,0,0.5,0.0,0.0,0.0,0
2014-01-16 20:55:00,0.733068261772,0,0.5,0.0,0.0,0.0,0
2014-01-16 21:00:00,0.733068261772,0,0.5,0.0,0.0,0.0,0
2014-01-16 21:05:00,0.733068261772,0,0.5,0.0,0.0,0.0,0
2014-01-16 21:10:00,0.733024424138,0,0.5,0.0,0.0,0.0,0
2014-01-16 21:15:00,0.733024424138,0,0.5,0.0,0.0,0.0,0
2014-01-16 21:20:00,0.730626505549,0,0.5,0.0,0.0,0.0,0
2014-01-16 21:25:00,0.733024424138,0,0.5,0.0,0.0,0.0,0
2014-01-16 21:30:00,0.733024424138,0,0.5,0.0,0.0,0.0,0
2014-01-16 21:35:00,0.733024424138,0,0.5,0.0,0.0,0.0,0
2014-01-16 21:40:00,0.733068261772,0,0.5,0.0,0.0,0.0,0
2014-01-16 21:45:00,0.730626505549,0,0.5,0.0,0.0,0.0,0
2014-01-16 21:50:00,0.735463988479,0,0.5,0.0,0.0,0.0,0
2014-01-16 21:55:00,0.730626505549,0,0.5,0.0,0.0,0.0,0
2014-01-16 22:00:00,0.735536320576,0,0.5,0.0,0.0,0.0,0
2014-01-16 22:05:00,0.730626505549,0,0.5,0.0,0.0,0.0,0
2014-01-16 22:10:00,0.735492482942,0,0.5,0.0,0.0,0.0,0
2014-01-16 22:15:00,0.730626505549,0,0.5,0.0,0.0,0.0,0
2014-01-16 22:20:00,0.733024424138,0,0.5,0.0,0.0,0.0,0
2014-01-16 22:25:00,0.733024424138,0,0.5,0.0,0.0,0.0,0
2014-01-16 22:30:00,0.730626505549,0,0.5,0.0,0.0,0.0,0
2014-01-16 22:35:00,0.735536320576,0,0.5,0.0,0.0,0.0,0
2014-01-16 22:40:00,0.733096756234,0,0.5,0.0,0.0,0.0,0
2014-01-16 22:45:00,0.733068261772,0,0.5,0.0,0.0,0.0,0
2014-01-16 22:50:00,0.733096756234,0,0.5,0.0,0.0,0.0,0
2014-01-16 22:55:00,0.730626505549,0,0.5,0.0,0.0,0.0,0
2014-01-16 23:00:00,0.73556700692,0,0.5,0.0,0.0,0.0,0
2014-01-16 23:05:00,0.733068261772,0,0.5,0.0,0.0,0.0,0
2014-01-16 23:10:00,0.733068261772,0,0.5,0.0,0.0,0.0,0
2014-01-16 23:15:00,0.733024424138,0,0.5,0.0,0.0,0.0,0
2014-01-16 23:20:00,0.733096756234,0,0.5,0.0,0.0,0.0,0
2014-01-16 23:25:00,0.730626505549,0,0.5,0.0,0.0,0.0,0
2014-01-16 23:30:00,0.735463988479,0,0.5,0.0,0.0,0.0,0
2014-01-16 23:35:00,0.730626505549,0,0.5,0.0,0.0,0.0,0
2014-01-16 23:40:00,0.781859548604,0,0.5,0.0,0.0,0.0,0
2014-01-16 23:45:00,0.733024424138,0,0.5,0.0,0.0,0.0,0
2014-01-16 23:50:00,0.733068261772,0,0.5,0.0,0.0,0.0,0
2014-01-16 23:55:00,0.733096756234,0,0.5,0.0,0.0,0.0,0
2014-01-17 00:00:00,0.735420150845,0,0.5,0.0,0.0,0.0,0
2014-01-17 00:05:00,0.730626505549,0,0.5,0.0,0.0,0.0,0
2014-01-17 00:10:00,0.735463988479,0,0.5,0.0,0.0,0.0,0
2014-01-17 00:15:00,0.730626505549,0,0.5,0.0,0.0,0.0,0
2014-01-17 00:20:00,0.733068261772,0,0.5,0.0,0.0,0.0,0
2014-01-17 00:25:00,0.733096756234,0,0.5,0.0,0.0,0.0,0
2014-01-17 00:30:00,0.730626505549,0,0.5,0.0,0.0,0.0,0
2014-01-17 00:35:00,0.735507826114,0,0.5,0.0,0.0,0.0,0
2014-01-17 00:40:00,0.730626505549,0,0.5,0.0,0.0,0.0,0
2014-01-17 00:45:00,0.735536320576,0,0.5,0.0,0.0,0.0,0
2014-01-17 00:50:00,0.730626505549,0,0.5,0.0,0.0,0.0,0
2014-01-17 00:55:00,0.730626505549,0,0.5,0.0,0.0,0.0,0
2014-01-17 01:00:00,0.735536320576,0,0.5,0.0,0.0,0.0,0
2014-01-17 01:05:00,0.735463988479,0,0.5,0.0,0.0,0.0,0
2014-01-17 01:10:00,0.730626505549,0,0.5,0.0,0.0,0.0,0
2014-01-17 01:15:00,0.735492482942,0,0.5,0.0,0.0,0.0,0
2014-01-17 01:20:00,0.730626505549,0,0.5,0.0,0.0,0.0,0
2014-01-17 01:25:00,0.730626505549,0,0.5,0.0,0.0,0.0,0
2014-01-17 01:30:00,0.735463988479,0,0.5,0.0,0.0,0.0,0
2014-01-17 01:35:00,0.730626505549,0,0.5,0.0,0.0,0.0,0
2014-01-17 01:40:00,0.747957714218,0,0.5,0.0,0.0,0.0,0
2014-01-17 01:45:00,0.8255503267,0,0.5,0.0,0.0,0.0,0
2014-01-17 01:50:00,0.830475484899,0,0.5,0.0,0.0,0.0,0
2014-01-17 01:55:00,0.825315795357,0,0.5,0.0,0.0,0.0,0
2014-01-17 02:00:00,0.752751359515,0,0.5,0.0,0.0,0.0,0
2014-01-17 02:05:00,0.730626505549,0,0.5,0.0,0.0,0.0,0
2014-01-17 02:10:00,0.735507826114,0,0.5,0.0,0.0,0.0,0
2014-01-17 02:15:00,0.730626505549,0,0.5,0.0,0.0,0.0,0
2014-01-17 02:20:00,0.82565334514,0,0.5,0.0,0.0,0.0,0
2014-01-17 02:25:00,0.845174243636,0,0.5,0.0,0.0,0.0,0
2014-01-17 02:30:00,0.840104421245,0,0.5,0.0,0.0,0.0,0
2014-01-17 02:35:00,0.737890401531,0,0.5,0.0,0.0,0.0,0
2014-01-17 02:40:00,0.730626505549,0,0.5,0.0,0.0,0.0,0
2014-01-17 02:45:00,0.733024424138,0,0.5,0.0,0.0,0.0,0
2014-01-17 02:50:00,0.733096756234,0,0.5,0.0,0.0,0.0,0
2014-01-17 02:55:00,0.733068261772,0,0.5,0.0,0.0,0.0,0
2014-01-17 03:00:00,0.733068261772,0,0.5,0.0,0.0,0.0,0
2014-01-17 03:05:00,0.780046862431,0,0.5,0.0,0.0,0.0,0
2014-01-17 03:10:00,0.730626505549,0,0.5,0.0,0.0,0.0,0
2014-01-17 03:15:00,0.735463988479,0,0.5,0.0,0.0,0.0,0
2014-01-17 03:20:00,0.730626505549,0,0.5,0.0,0.0,0.0,0
2014-01-17 03:25:00,0.774464139719,0,0.5,0.0,0.0,0.0,0
2014-01-17 03:30:00,0.735492482942,0,0.5,0.0,0.0,0.0,0
2014-01-17 03:35:00,0.730626505549,0,0.5,0.0,0.0,0.0,0
2014-01-17 03:40:00,0.735463988479,0,0.5,0.0,0.0,0.0,0
2014-01-17 03:45:00,0.730626505549,0,0.5,0.0,0.0,0.0,0
2014-01-17 03:50:00,0.735507826114,0,0.5,0.0,0.0,0.0,0
2014-01-17 03:55:00,0.733068261772,0,0.5,0.0,0.0,0.0,0
2014-01-17 04:00:00,0.735536320576,0,0.5,0.0,0.0,0.0,0
2014-01-17 04:05:00,0.730626505549,0,0.5,0.0,0.0,0.0,0
2014-01-17 04:10:00,0.733096756234,0,0.5,0.0,0.0,0.0,0
2014-01-17 04:15:00,0.733096756234,0,0.5,0.0,0.0,0.0,0
2014-01-17 04:20:00,0.730626505549,0,0.5,0.0,0.0,0.0,0
2014-01-17 04:25:00,0.733068261772,0,0.5,0.0,0.0,0.0,0
2014-01-17 04:30:00,0.733096756234,0,0.5,0.0,0.0,0.0,0
2014-01-17 04:35:00,0.733068261772,0,0.5,0.0,0.0,0.0,0
2014-01-17 04:40:00,0.733068261772,0,0.5,0.0,0.0,0.0,0
2014-01-17 04:45:00,0.733096756234,0,0.5,0.0,0.0,0.0,0
2014-01-17 04:50:00,0.730626505549,0,0.5,0.0,0.0,0.0,0
2014-01-17 04:55:00,0.733068261772,0,0.5,0.0,0.0,0.0,0
2014-01-17 05:00:00,0.735463988479,0,0.5,0.0,0.0,0.0,0
2014-01-17 05:05:00,0.733096756234,0,0.5,0.0,0.0,0.0,0
2014-01-17 05:10:00,0.730626505549,0,0.5,0.0,0.0,0.0,0
2014-01-17 05:15:00,0.733096756234,0,0.5,0.0,0.0,0.0,0
2014-01-17 05:20:00,0.733024424138,0,0.5,0.0,0.0,0.0,0
2014-01-17 05:25:00,0.733068261772,0,0.5,0.0,0.0,0.0,0
2014-01-17 05:30:00,0.733096756234,0,0.5,0.0,0.0,0.0,0
2014-01-17 05:35:00,0.730626505549,0,0.5,0.0,0.0,0.0,0
2014-01-17 05:40:00,0.735463988479,0,0.5,0.0,0.0,0.0,0
2014-01-17 05:45:00,0.730626505549,0,0.5,0.0,0.0,0.0,0
2014-01-17 05:50:00,0.733024424138,0,0.5,0.0,0.0,0.0,0
2014-01-17 05:55:00,0.733068261772,0,0.5,0.0,0.0,0.0,0
2014-01-17 06:00:00,0.735536320576,0,0.5,0.0,0.0,0.0,0
2014-01-17 06:05:00,0.730626505549,0,0.5,0.0,0.0,0.0,0
2014-01-17 06:10:00,0.733024424138,0,0.5,0.0,0.0,0.0,0
2014-01-17 06:15:00,0.733068261772,0,0.5,0.0,0.0,0.0,0
2014-01-17 06:20:00,0.730626505549,0,0.5,0.0,0.0,0.0,0
2014-01-17 06:25:00,0.735507826114,0,0.5,0.0,0.0,0.0,0
2014-01-17 06:30:00,0.730626505549,0,0.5,0.0,0.0,0.0,0
2014-01-17 06:35:00,0.733068261772,0,0.5,0.0,0.0,0.0,0
2014-01-17 06:40:00,0.733068261772,0,0.5,0.0,0.0,0.0,0
2014-01-17 06:45:00,0.730626505549,0,0.5,0.0,0.0,0.0,0
2014-01-17 06:50:00,0.735507826114,0,0.5,0.0,0.0,0.0,0
2014-01-17 06:55:00,0.730626505549,0,0.5,0.0,0.0,0.0,0
2014-01-17 07:00:00,0.735463988479,0,0.5,0.0,0.0,0.0,0
2014-01-17 07:05:00,0.730626505549,0,0.5,0.0,0.0,0.0,0
2014-01-17 07:10:00,0.735463988479,0,0.5,0.0,0.0,0.0,0
2014-01-17 07:15:00,0.730626505549,0,0.5,0.0,0.0,0.0,0
2014-01-17 07:20:00,0.733024424138,0,0.5,0.0,0.0,0.0,0
2014-01-17 07:25:00,0.733096756234,0,0.5,0.0,0.0,0.0,0
2014-01-17 07:30:00,0.730626505549,0,0.5,0.0,0.0,0.0,0
2014-01-17 07:35:00,0.735536320576,0,0.5,0.0,0.0,0.0,0
2014-01-17 07:40:00,0.733024424138,0,0.5,0.0,0.0,0.0,0
2014-01-17 07:45:00,0.735507826114,0,0.5,0.0,0.0,0.0,0
2014-01-17 07:50:00,0.730626505549,0,0.5,0.0,0.0,0.0,0
2014-01-17 07:55:00,0.730626505549,0,0.5,0.0,0.0,0.0,0
2014-01-17 08:00:00,0.735536320576,0,0.5,0.0,0.0,0.0,0
2014-01-17 08:05:00,0.735507826114,0,0.5,0.0,0.0,0.0,0
2014-01-17 08:10:00,0.730626505549,0,0.5,0.0,0.0,0.0,0
2014-01-17 08:15:00,0.735463988479,0,0.5,0.0,0.0,0.0,0
2014-01-17 08:20:00,0.730626505549,0,0.65775249115,0.0,0.0,0.0,0
2014-01-17 08:25:00,0.730626505549,0,0.668104122856,0.0,0.0,0.0,0
2014-01-17 08:30:00,0.735463988479,0,0.662976080098,0.0,0.0,0.0,0
2014-01-17 08:35:00,0.730626505549,0,0.673205430513,0.0,0.0,0.0,0
2014-01-17 08:40:00,0.735492482942,0,0.663008428031,0.0,0.0,0.0,0
2014-01-17 08:45:00,0.730626505549,0,0.663008428031,0.0,0.0,0.0,0
2014-01-17 08:50:00,0.733024424138,0,0.668287841352,0.0,0.0,0.0,0
2014-01-17 08:55:00,0.733024424138,0,0.673474717511,0.0,0.0,0.0,0
2014-01-17 09:00:00,0.733068261772,0,0.668375093465,0.0,0.0,0.0,0
2014-01-17 09:05:00,0.733096756234,0,0.673319546199,0.0,0.0,0.0,0
2014-01-17 09:10:00,0.733068261772,0,0.668218951656,0.0,0.0,0.0,0
2014-01-17 09:15:00,0.733096756234,0,0.663026912023,0.0,0.0,0.0,0
2014-01-17 09:20:00,0.733096756234,0,0.651060274578,0.0,0.0,0.0,0
2014-01-17 09:25:00,0.730626505549,0,0.651060274578,0.0,0.0,0.0,0
2014-01-17 09:30:00,0.733096756234,0,0.65616403541,0.0,0.0,0.0,0
2014-01-17 09:35:00,0.733024424138,0,0.651055592373,0.0,0.0,0.0,0
2014-01-17 09:40:00,0.733068261772,0,0.650961943436,0.0,0.0,0.0,0
2014-01-17 09:45:00,0.733068261772,0,0.650868285304,0.0,0.0,0.0,0
2014-01-17 09:50:00,0.733068261772,0,0.650868285304,0.0,0.0,0.0,0
2014-01-17 09:55:00,0.733024424138,0,0.651022816291,0.0,0.0,0.0,0
2014-01-17 10:00:00,0.733068261772,0,0.651022816291,0.0,0.0,0.0,0
2014-01-17 10:05:00,0.733024424138,0,0.651177322236,0.0,0.0,0.0,0
2014-01-17 10:10:00,0.733068261772,0,0.651238181333,0.0,0.0,0.0,0
2014-01-17 10:15:00,0.733024424138,0,0.646103178705,0.0,0.0,0.0,0
2014-01-17 10:20:00,0.730626505549,0,0.651392652332,0.0,0.0,0.0,0
2014-01-17 10:25:00,0.733024424138,0,0.651392652332,0.0,0.0,0.0,0
2014-01-17 10:30:00,0.733068261772,0,0.651392652332,0.0,0.0,0.0,0
2014-01-17 10:35:00,0.733068261772,0,0.651392652332,0.0,0.0,0.0,0
2014-01-17 10:40:00,0.733068261772,0,0.651392652332,0.0,0.0,0.0,0
2014-01-17 10:45:00,0.733068261772,0,0.651299036539,0.0,0.0,0.0,0
2014-01-17 10:50:00,0.733024424138,0,0.651392652332,0.0,0.0,0.0,0
2014-01-17 10:55:00,0.730626505549,0,0.656499254607,0.0,0.0,0.0,0
2014-01-17 11:00:00,0.735536320576,0,0.651242862641,0.0,0.0,0.0,0
2014-01-17 11:05:00,0.733068261772,0,0.65114923211,0.0,0.0,0.0,0
2014-01-17 11:10:00,0.733096756234,0,0.645858429993,0.0,0.0,0.0,0
2014-01-17 11:15:00,0.730626505549,0,0.65099472161,0.0,0.0,0.0,0
2014-01-17 11:20:00,0.733068261772,0,0.65099472161,0.0,0.0,0.0,0
2014-01-17 11:25:00,0.733068261772,0,0.65099472161,0.0,0.0,0.0,0
2014-01-17 11:30:00,0.733024424138,0,0.651088367327,0.0,0.0,0.0,0
2014-01-17 11:35:00,0.733096756234,0,0.651027498658,0.0,0.0,0.0,0
2014-01-17 11:40:00,0.730626505549,0,0.65613609493,0.0,0.0,0.0,0
2014-01-17 11:45:00,0.735507826114,0,0.645707785439,0.0,0.0,0.0,0
2014-01-17 11:50:00,0.730626505549,0,0.656196631559,0.0,0.0,0.0,0
2014-01-17 11:55:00,0.735507826114,0,0.650999404114,0.0,0.0,0.0,0
2014-01-17 12:00:00,0.733068261772,0,0.651060274578,0.0,0.0,0.0,0
2014-01-17 12:05:00,0.733068261772,0,0.645830185877,0.0,0.0,0.0,0
2014-01-17 12:10:00,0.733096756234,0,0.645768987541,0.0,0.0,0.0,0
2014-01-17 12:15:00,0.733024424138,0,0.645863137268,0.0,0.0,0.0,0
2014-01-17 12:20:00,0.730626505549,0,0.650999404114,0.0,0.0,0.0,0
2014-01-17 12:25:00,0.733024424138,0,0.651153913855,0.0,0.0,0.0,0
2014-01-17 12:30:00,0.733024424138,0,0.646018464823,0.0,0.0,0.0,0
2014-01-17 12:35:00,0.733024424138,0,0.651336483962,0.0,0.0,0.0,0
2014-01-17 12:40:00,0.733024424138,0,0.646202002425,0.0,0.0,0.0,0
2014-01-17 12:45:00,0.730626505549,0,0.656624930095,0.0,0.0,0.0,0
2014-01-17 12:50:00,0.735420150845,0,0.651617292612,0.0,0.0,0.0,0
2014-01-17 12:55:00,0.730626505549,0,0.656815737536,0.0,0.0,0.0,0
2014-01-17 13:00:00,0.735492482942,0,0.65171555602,0.0,0.0,0.0,0
2014-01-17 13:05:00,0.733024424138,0,0.65171555602,0.0,0.0,0.0,0
2014-01-17 13:10:00,0.730626505549,0,0.65171555602,0.0,0.0,0.0,0
2014-01-17 13:15:00,0.735492482942,0,0.646432552789,0.0,0.0,0.0,0
2014-01-17 13:20:00,0.730626505549,0,0.651565817241,0.0,0.0,0.0,0
2014-01-17 13:25:00,0.781697349357,0,0.543214477874,0.0,0.0,0.0,0
2014-01-17 13:30:00,0.733068261772,0,0.543114097526,0.0,0.0,0.0,0
2014-01-17 13:35:00,0.733024424138,0,0.53761927503,0.0,0.0,0.0,0
2014-01-17 13:40:00,0.733096756234,0,0.542943444625,0.0,0.0,0.0,0
2014-01-17 13:45:00,0.733068261772,0,0.537347855039,0.0,0.0,0.0,0
2014-01-17 13:50:00,0.730626505549,0,0.548490443154,0.0,0.0,0.0,0
2014-01-17 13:55:00,0.733068261772,0,0.548390216458,0.0,0.0,0.0,0
2014-01-17 14:00:00,0.735507826114,0,0.537212138515,0.0,0.0,0.0,0
2014-01-17 14:05:00,0.733096756234,0,0.542702509408,0.0,0.0,0.0,0
2014-01-17 14:10:00,0.730626505549,0,0.542702509408,0.0,0.0,0.0,0
2014-01-17 14:15:00,0.733068261772,0,0.65099472161,0.0,0.0,0.0,0
2014-01-17 14:20:00,0.733068261772,0,0.65099472161,0.0,0.0,0.0,0
2014-01-17 14:25:00,0.733096756234,0,0.650840186072,0.0,0.0,0.0,0
2014-01-17 14:30:00,0.733068261772,0,0.650901066696,0.0,0.0,0.0,0
2014-01-17 14:35:00,0.730626505549,0,0.656103496626,0.0,0.0,0.0,0
2014-01-17 14:40:00,0.735536320576,0,0.645613621012,0.0,0.0,0.0,0
2014-01-17 14:45:00,0.730626505549,0,0.650844869335,0.0,0.0,0.0,0
2014-01-17 14:50:00,0.733068261772,0,0.656042953839,0.0,0.0,0.0,0
2014-01-17 14:55:00,0.733068261772,0,0.656103496626,0.0,0.0,0.0,0
2014-01-17 15:00:00,0.735463988479,0,0.645768987541,0.0,0.0,0.0,0
2014-01-17 15:05:00,0.730626505549,0,0.650999404114,0.0,0.0,0.0,0
2014-01-17 15:10:00,0.733024424138,0,0.651093049372,0.0,0.0,0.0,0
2014-01-17 15:15:00,0.733024424138,0,0.651247543926,0.0,0.0,0.0,0
2014-01-17 15:20:00,0.733024424138,0,0.651341164786,0.0,0.0,0.0,0
2014-01-17 15:25:00,0.733024424138,0,0.646206708071,0.0,0.0,0.0,0
2014-01-17 15:30:00,0.733068261772,0,0.651490938992,0.0,0.0,0.0,0
2014-01-17 15:35:00,0.735492482942,0,0.641045518831,0.0,0.0,0.0,0
2014-01-17 15:40:00,0.730626505549,0,0.646300816295,0.0,0.0,0.0,0
2014-01-17 15:45:00,0.733068261772,0,0.646300816295,0.0,0.0,0.0,0
2014-01-17 15:50:00,0.733068261772,0,0.651430096068,0.0,0.0,0.0,0
2014-01-17 15:55:00,0.733096756234,0,0.646140826997,0.0,0.0,0.0,0
2014-01-17 16:00:00,0.733024424138,0,0.646140826997,0.0,0.0,0.0,0
2014-01-17 16:05:00,0.735507826114,0,0.640794815354,0.0,0.0,0.0,0
2014-01-17 16:10:00,0.730626505549,0,0.645957278079,0.0,0.0,0.0,0
2014-01-17 16:15:00,0.735507826114,0,0.640610296704,0.0,0.0,0.0,0
2014-01-17 16:20:00,0.730626505549,0,0.64586784452,0.0,0.0,0.0,0
2014-01-17 16:25:00,0.730626505549,0,0.656261820373,0.0,0.0,0.0,0
2014-01-17 16:30:00,0.735536320576,0,0.645773695239,0.0,0.0,0.0,0
2014-01-17 16:35:00,0.730626505549,0,0.651004086596,0.0,0.0,0.0,0
2014-01-17 16:40:00,0.735536320576,0,0.645717201392,0.0,0.0,0.0,0
2014-01-17 16:45:00,0.730626505549,0,0.651008769054,0.0,0.0,0.0,0
2014-01-17 16:50:00,0.733024424138,0,0.651008769054,0.0,0.0,0.0,0
2014-01-17 16:55:00,0.733068261772,0,0.656205944531,0.0,0.0,0.0,0
2014-01-17 17:00:00,0.735536320576,0,0.645717201392,0.0,0.0,0.0,0
2014-01-17 17:05:00,0.730626505549,0,0.656145408518,0.0,0.0,0.0,0
2014-01-17 17:10:00,0.733024424138,0,0.651036863321,0.0,0.0,0.0,0
2014-01-17 17:15:00,0.733068261772,0,0.645806648501,0.0,0.0,0.0,0
2014-01-17 17:20:00,0.733068261772,0,0.651093049372,0.0,0.0,0.0,0
2014-01-17 17:25:00,0.733068261772,0,0.645863137268,0.0,0.0,0.0,0
2014-01-17 17:30:00,0.733068261772,0,0.65114923211,0.0,0.0,0.0,0
2014-01-17 17:35:00,0.730626505549,0,0.65114923211,0.0,0.0,0.0,0
2014-01-17 17:40:00,0.733096756234,0,0.586753019571,0.0,0.0,0.0,0
2014-01-17 17:45:00,0.733024424138,0,0.586851591895,0.0,0.0,0.0,0
2014-01-17 17:50:00,0.733068261772,0,0.592392204468,0.0,0.0,0.0,0
2014-01-17 17:55:00,0.733096756234,0,0.586846663408,0.0,0.0,0.0,0
2014-01-17 18:00:00,0.733068261772,0,0.586748090811,0.0,0.0,0.0,0
2014-01-17 18:05:00,0.733068261772,0,0.586748090811,0.0,0.0,0.0,0
2014-01-17 18:10:00,0.733096756234,0,0.58668401569,0.0,0.0,0.0,0
2014-01-17 18:15:00,0.735536320576,0,0.581125542987,0.0,0.0,0.0,0
2014-01-17 18:20:00,0.733024424138,0,0.581224417412,0.0,0.0,0.0,0
2014-01-17 18:25:00,0.730626505549,0,0.581224417412,0.0,0.0,0.0,0
2014-01-17 18:30:00,0.733096756234,0,0.581224417412,0.0,0.0,0.0,0
2014-01-17 18:35:00,0.733068261772,0,0.581125542987,0.0,0.0,0.0,0
2014-01-17 18:40:00,0.733068261772,0,0.581125542987,0.0,0.0,0.0,0
2014-01-17 18:45:00,0.730626505549,0,0.586688944628,0.0,0.0,0.0,0
2014-01-17 18:50:00,0.735492482942,0,0.581229360999,0.0,0.0,0.0,0
2014-01-17 18:55:00,0.730626505549,0,0.586728375635,0.0,0.0,0.0,0
2014-01-17 19:00:00,0.735507826114,0,0.581298569865,0.0,0.0,0.0,0