timestamp,value,is_anomaly,anomaly_score
2014-04-02 14:25:00,0.0,0,0.0
2014-04-02 14:30:00,0.0,0,0.0
2014-04-02 14:35:00,0.0,0,0.0
2014-04-02 14:40:00,0.0,0,0.0
2014-04-02 14:45:00,0.0,0,0.0
2014-04-02 14:50:00,0.0,0,0.0
2014-04-02 14:55:00,0.0,0,0.0
2014-04-02 15:00:00,0.02309031394826636,0,0.02309031394826636
2014-04-02 15:05:00,0.0566589580121394,0,0.0566589580121394
2014-04-02 15:10:00,0.4990937122380099,0,0.4990937122380099
2014-04-02 15:15:00,0.042171548814533937,0,0.042171548814533937
2014-04-02 15:20:00,0.001804403887199004,0,0.001804403887199004
2014-04-02 15:25:00,0.0,0,0.0
2014-04-02 15:30:00,0.0,0,0.0
2014-04-02 15:35:00,0.0,0,0.0
2014-04-02 15:40:00,0.0,0,0.0
2014-04-02 15:45:00,0.0,0,0.0
2014-04-02 15:50:00,0.0,0,0.0
2014-04-02 15:55:00,0.0,0,0.0
2014-04-02 16:00:00,0.0,0,0.0
2014-04-02 16:05:00,0.0,0,0.0
2014-04-02 16:10:00,0.0,0,0.0
2014-04-02 16:15:00,0.0,0,0.0
2014-04-02 16:20:00,0.0,0,0.0
2014-04-02 16:25:00,0.0,0,0.0
2014-04-02 16:30:00,0.0,0,0.0
2014-04-02 16:35:00,0.0,0,0.0
2014-04-02 16:40:00,0.0,0,0.0
2014-04-02 16:45:00,0.0,0,0.0
2014-04-02 16:50:00,0.0,0,0.0
2014-04-02 16:55:00,0.0,0,0.0
2014-04-02 17:00:00,0.0,0,0.0
2014-04-02 17:05:00,0.04001636642267502,0,0.04001636642267502
2014-04-02 17:10:00,0.3747922367135668,0,0.3747922367135668
2014-04-02 17:15:00,0.1659201077822687,0,0.1659201077822687
2014-04-02 17:20:00,0.04052842479547759,0,0.04052842479547759
2014-04-02 17:25:00,1.137825187160576e-05,0,1.137825187160576e-05
2014-04-02 17:30:00,0.0,0,0.0
2014-04-02 17:35:00,0.0,0,0.0
2014-04-02 17:40:00,0.0014573639642392509,0,0.0014573639642392509
2014-04-02 17:45:00,0.057571148797866574,0,0.057571148797866574
2014-04-02 17:50:00,0.014194341430892952,0,0.014194341430892952
2014-04-02 17:55:00,0.0,0,0.0
2014-04-02 18:00:00,0.0,0,0.0
2014-04-02 18:05:00,0.0,0,0.0
2014-04-02 18:10:00,0.0,0,0.0
2014-04-02 18:15:00,0.050478723650522465,0,0.050478723650522465
2014-04-02 18:20:00,0.022253010542105926,0,0.022253010542105926
2014-04-02 18:25:00,0.04167187521702293,0,0.04167187521702293
2014-04-02 18:30:00,0.44676745790333855,0,0.44676745790333855
2014-04-02 18:35:00,0.12481885819316545,0,0.12481885819316545
2014-04-02 18:40:00,0.007751434087531425,0,0.007751434087531425
2014-04-02 18:45:00,0.0,0,0.0
2014-04-02 18:50:00,0.0,0,0.0
2014-04-02 18:55:00,0.0,0,0.0
2014-04-02 19:00:00,0.0,0,0.0
2014-04-02 19:05:00,0.0,0,0.0
2014-04-02 19:10:00,0.0015929598918473455,0,0.0015929598918473455
2014-04-02 19:15:00,2.275650374321152e-05,0,2.275650374321152e-05
2014-04-02 19:20:00,0.0,0,0.0
2014-04-02 19:25:00,0.0,0,0.0
2014-04-02 19:30:00,0.0,0,0.0
2014-04-02 19:35:00,0.0,0,0.0
2014-04-02 19:40:00,0.0,0,0.0
2014-04-02 19:45:00,0.0,0,0.0
2014-04-02 19:50:00,0.0,0,0.0
2014-04-02 19:55:00,0.0,0,0.0
2014-04-02 20:00:00,0.0,0,0.0
2014-04-02 20:05:00,0.0,0,0.0
2014-04-02 20:10:00,0.0,0,0.0
2014-04-02 20:15:00,0.0,0,0.0
2014-04-02 20:20:00,0.0,0,0.0
2014-04-02 20:25:00,0.0,0,0.0
2014-04-02 20:30:00,0.0,0,0.0
2014-04-02 20:35:00,0.0,0,0.0
2014-04-02 20:40:00,0.0,0,0.0
2014-04-02 20:45:00,0.0,0,0.0
2014-04-02 20:50:00,0.0,0,0.0
2014-04-02 20:55:00,0.0,0,0.0
2014-04-02 21:00:00,0.0,0,0.0
2014-04-02 21:05:00,0.0,0,0.0
2014-04-02 21:10:00,0.0,0,0.0
2014-04-02 21:15:00,0.0,0,0.0
2014-04-02 21:20:00,0.0,0,0.0
2014-04-02 21:25:00,0.023742655943997663,0,0.023742655943997663
2014-04-02 21:30:00,0.05964287863846179,0,0.05964287863846179
2014-04-02 21:35:00,0.4981087174928585,0,0.4981087174928585
2014-04-02 21:40:00,0.042462648906667406,0,0.042462648906667406
2014-04-02 21:45:00,0.001670706186831859,0,0.001670706186831859
2014-04-02 21:50:00,0.0,0,0.0
2014-04-02 21:55:00,3.7927506238685883e-06,0,3.7927506238685883e-06
2014-04-02 22:00:00,0.0007727729396132246,0,0.0007727729396132246
2014-04-02 22:05:00,0.053531860123801456,0,0.053531860123801456
2014-04-02 22:10:00,0.5238030751281303,0,0.5238030751281303
2014-04-02 22:15:00,0.040211744933816684,0,0.040211744933816684
2014-04-02 22:20:00,0.0038686102661684976,0,0.0038686102661684976
2014-04-02 22:25:00,0.0,0,0.0
2014-04-02 22:30:00,0.02326381654791172,0,0.02326381654791172
2014-04-02 22:35:00,0.3843956461148844,0,0.3843956461148844
2014-04-02 22:40:00,0.16998972179396366,0,0.16998972179396366
2014-04-02 22:45:00,0.044259483034015314,0,0.044259483034015314
2014-04-02 22:50:00,3.318656795885013e-05,0,3.318656795885013e-05
2014-04-02 22:55:00,0.0,0,0.0
2014-04-02 23:00:00,0.0,0,0.0
2014-04-02 23:05:00,0.0,0,0.0
2014-04-02 23:10:00,0.0,0,0.0
2014-04-02 23:15:00,0.0,0,0.0
2014-04-02 23:20:00,0.0,0,0.0
2014-04-02 23:25:00,0.0,0,0.0
2014-04-02 23:30:00,0.0,0,0.0
2014-04-02 23:35:00,0.0,0,0.0
2014-04-02 23:40:00,0.0,0,0.0
2014-04-02 23:45:00,0.0,0,0.0
2014-04-02 23:50:00,0.0,0,0.0
2014-04-02 23:55:00,0.0,0,0.0
2014-04-03 00:00:00,0.0,0,0.0
2014-04-03 00:05:00,0.0,0,0.0
2014-04-03 00:10:00,0.0,0,0.0
2014-04-03 00:15:00,0.0017863823029663274,0,0.0017863823029663274
2014-04-03 00:20:00,0.0,0,0.0
2014-04-03 00:25:00,0.0,0,0.0
2014-04-03 00:30:00,0.0,0,0.0
2014-04-03 00:35:00,0.0,0,0.0
2014-04-03 00:40:00,0.023248653879096814,0,0.023248653879096814
2014-04-03 00:45:00,0.27321971748822865,0,0.27321971748822865
2014-04-03 00:50:00,0.2817108120245751,0,0.2817108120245751
2014-04-03 00:55:00,0.044278465306424805,0,0.044278465306424805
2014-04-03 01:00:00,3.03420049909487e-05,0,3.03420049909487e-05
2014-04-03 01:05:00,0.0,0,0.0
2014-04-03 01:10:00,0.0,0,0.0
2014-04-03 01:15:00,0.0,0,0.0
2014-04-03 01:20:00,0.0,0,0.0
2014-04-03 01:25:00,0.0,0,0.0
2014-04-03 01:30:00,0.0,0,0.0
2014-04-03 01:35:00,0.0,0,0.0
2014-04-03 01:40:00,0.0,0,0.0
2014-04-03 01:45:00,0.0,0,0.0
2014-04-03 01:50:00,0.0,0,0.0
2014-04-03 01:55:00,0.0,0,0.0
2014-04-03 02:00:00,0.0,0,0.0
2014-04-03 02:05:00,0.0,0,0.0
2014-04-03 02:10:00,0.0,0,0.0
2014-04-03 02:15:00,0.0,0,0.0
2014-04-03 02:20:00,0.0,0,0.0
2014-04-03 02:25:00,0.0,0,0.0
2014-04-03 02:30:00,0.0,0,0.0
2014-04-03 02:35:00,0.0,0,0.0
2014-04-03 02:40:00,0.0,0,0.0
2014-04-03 02:45:00,0.0,0,0.0
2014-04-03 02:50:00,0.0,0,0.0
2014-04-03 02:55:00,0.0,0,0.0
2014-04-03 03:00:00,0.0,0,0.0
2014-04-03 03:05:00,0.0,0,0.0
2014-04-03 03:10:00,0.0,0,0.0
2014-04-03 03:15:00,0.0,0,0.0
2014-04-03 03:20:00,0.0,0,0.0
2014-04-03 03:25:00,0.0,0,0.0
2014-04-03 03:30:00,0.0,0,0.0
2014-04-03 03:35:00,0.0,0,0.0
2014-04-03 03:40:00,0.0,0,0.0
2014-04-03 03:45:00,0.0,0,0.0
2014-04-03 03:50:00,0.0,0,0.0
2014-04-03 03:55:00,0.0,0,0.0
2014-04-03 04:00:00,0.0,0,0.0
2014-04-03 04:05:00,0.0,0,0.0
2014-04-03 04:10:00,0.0,0,0.0
2014-04-03 04:15:00,0.0,0,0.0
2014-04-03 04:20:00,0.0,0,0.0
2014-04-03 04:25:00,0.0,0,0.0
2014-04-03 04:30:00,0.0,0,0.0
2014-04-03 04:35:00,0.0,0,0.0
2014-04-03 04:40:00,0.0,0,0.0
2014-04-03 04:45:00,0.0,0,0.0
2014-04-03 04:50:00,0.0,0,0.0
2014-04-03 04:55:00,0.0,0,0.0
2014-04-03 05:00:00,0.0,0,0.0
2014-04-03 05:05:00,0.0,0,0.0
2014-04-03 05:10:00,0.004580700121764333,0,0.004580700121764333
2014-04-03 05:15:00,0.004462176664768439,0,0.004462176664768439
2014-04-03 05:20:00,2.8445629679014407e-06,0,2.8445629679014407e-06
2014-04-03 05:25:00,0.0,0,0.0
2014-04-03 05:30:00,0.0,0,0.0
2014-04-03 05:35:00,0.0,0,0.0
2014-04-03 05:40:00,0.0,0,0.0
2014-04-03 05:45:00,0.0,0,0.0
2014-04-03 05:50:00,0.0,0,0.0
2014-04-03 05:55:00,0.0,0,0.0
2014-04-03 06:00:00,0.022800139820640674,0,0.022800139820640674
2014-04-03 06:05:00,0.05082954845340778,0,0.05082954845340778
2014-04-03 06:10:00,0.5039365066137015,0,0.5039365066137015
2014-04-03 06:15:00,0.042258820969392236,0,0.042258820969392236
2014-04-03 06:20:00,0.002055675930941567,0,0.002055675930941567
2014-04-03 06:25:00,0.0,0,0.0
2014-04-03 06:30:00,0.0,0,0.0
2014-04-03 06:35:00,0.02313013042210092,0,0.02313013042210092
2014-04-03 06:40:00,0.1536881166344894,0,0.1536881166344894
2014-04-03 06:45:00,0.4007122981976101,0,0.4007122981976101
2014-04-03 06:50:00,0.042036936724215365,0,0.042036936724215365
2014-04-03 06:55:00,0.0017825974230407746,0,0.0017825974230407746
2014-04-03 07:00:00,0.0,0,0.0
2014-04-03 07:05:00,0.0,0,0.0
2014-04-03 07:10:00,0.0,0,0.0
2014-04-03 07:15:00,0.0,0,0.0
2014-04-03 07:20:00,0.0,0,0.0
2014-04-03 07:25:00,0.0,0,0.0
2014-04-03 07:30:00,0.0,0,0.0
2014-04-03 07:35:00,0.0,0,0.0
2014-04-03 07:40:00,0.0,0,0.0
2014-04-03 07:45:00,0.0,0,0.0
2014-04-03 07:50:00,0.0,0,0.0
2014-04-03 07:55:00,0.0,0,0.0
2014-04-03 08:00:00,0.04886013769092231,0,0.04886013769092231
2014-04-03 08:05:00,0.4692938594663666,0,0.4692938594663666
2014-04-03 08:10:00,0.09777618048900186,0,0.09777618048900186
2014-04-03 08:15:00,0.007064947150575719,0,0.007064947150575719
2014-04-03 08:20:00,0.0,0,0.0
2014-04-03 08:25:00,0.0,0,0.0
2014-04-03 08:30:00,0.0,0,0.0
2014-04-03 08:35:00,0.0,0,0.0
2014-04-03 08:40:00,0.0,0,0.0
2014-04-03 08:45:00,0.0,0,0.0
2014-04-03 08:50:00,0.048806084512780616,0,0.048806084512780616
2014-04-03 08:55:00,0.4346847785324389,0,0.4346847785324389
2014-04-03 09:00:00,0.13151242412878314,0,0.13151242412878314
2014-04-03 09:05:00,0.007675574445231514,0,0.007675574445231514
2014-04-03 09:10:00,9.481876559671468e-06,0,9.481876559671468e-06
2014-04-03 09:15:00,0.0,0,0.0
2014-04-03 09:20:00,0.0,0,0.0
2014-04-03 09:25:00,0.0,0,0.0
2014-04-03 09:30:00,0.0,0,0.0
2014-04-03 09:35:00,0.0,0,0.0
2014-04-03 09:40:00,0.0,0,0.0
2014-04-03 09:45:00,0.0,0,0.0
2014-04-03 09:50:00,0.0,0,0.0
2014-04-03 09:55:00,0.0,0,0.0
2014-04-03 10:00:00,2.1808316087244373e-05,0,2.1808316087244373e-05
2014-04-03 10:05:00,0.0,0,0.0
2014-04-03 10:10:00,0.0,0,0.0
2014-04-03 10:15:00,0.0,0,0.0
2014-04-03 10:20:00,0.0,0,0.0
2014-04-03 10:25:00,0.0,0,0.0
2014-04-03 10:30:00,0.0,0,0.0
2014-04-03 10:35:00,0.0,0,0.0
2014-04-03 10:40:00,0.0,0,0.0
2014-04-03 10:45:00,0.0,0,0.0
2014-04-03 10:50:00,0.0,0,0.0
2014-04-03 10:55:00,0.0,0,0.0
2014-04-03 11:00:00,0.0,0,0.0
2014-04-03 11:05:00,0.0,0,0.0
2014-04-03 11:10:00,0.0,0,0.0
2014-04-03 11:15:00,0.0,0,0.0
2014-04-03 11:20:00,0.0,0,0.0
2014-04-03 11:25:00,0.0,0,0.0
2014-04-03 11:30:00,0.0,0,0.0
2014-04-03 11:35:00,0.0,0,0.0
2014-04-03 11:40:00,0.0,0,0.0
2014-04-03 11:45:00,0.0,0,0.0
2014-04-03 11:50:00,0.0,0,0.0
2014-04-03 11:55:00,0.0,0,0.0
2014-04-03 12:00:00,0.0,0,0.0
2014-04-03 12:05:00,0.0,0,0.0
2014-04-03 12:10:00,0.0,0,0.0
2014-04-03 12:15:00,0.0,0,0.0
2014-04-03 12:20:00,0.0,0,0.0
2014-04-03 12:25:00,0.0,0,0.0
2014-04-03 12:30:00,0.0,0,0.0
2014-04-03 12:35:00,0.0,0,0.0
2014-04-03 12:40:00,0.0,0,0.0
2014-04-03 12:45:00,0.0,0,0.0
2014-04-03 12:50:00,0.0,0,0.0
2014-04-03 12:55:00,0.0,0,0.0
2014-04-03 13:00:00,0.0,0,0.0
2014-04-03 13:05:00,0.0,0,0.0
2014-04-03 13:10:00,0.0,0,0.0
2014-04-03 13:15:00,0.0,0,0.0
2014-04-03 13:20:00,0.0,0,0.0
2014-04-03 13:25:00,0.0,0,0.0
2014-04-03 13:30:00,0.0,0,0.0
2014-04-03 13:35:00,0.0,0,0.0
2014-04-03 13:40:00,0.0,0,0.0
2014-04-03 13:45:00,0.0,0,0.0
2014-04-03 13:50:00,0.0,0,0.0
2014-04-03 13:55:00,0.0,0,0.0
2014-04-03 14:00:00,0.0,0,0.0
2014-04-03 14:05:00,0.0,0,0.0
2014-04-03 14:10:00,0.0,0,0.0
2014-04-03 14:15:00,0.0,0,0.0
2014-04-03 14:20:00,0.0,0,0.0
2014-04-03 14:25:00,0.0,0,0.0
2014-04-03 14:30:00,0.0,0,0.0
2014-04-03 14:35:00,0.0,0,0.0
2014-04-03 14:40:00,0.0,0,0.0
2014-04-03 14:45:00,0.0,0,0.0
2014-04-03 14:50:00,0.0,0,0.0
2014-04-03 14:55:00,0.0,0,0.0
2014-04-03 15:00:00,0.0,0,0.0
2014-04-03 15:05:00,0.0,0,0.0
2014-04-03 15:10:00,0.0,0,0.0
2014-04-03 15:15:00,0.0,0,0.0
2014-04-03 15:20:00,0.0,0,0.0
2014-04-03 15:25:00,0.0,0,0.0
2014-04-03 15:30:00,0.0,0,0.0
2014-04-03 15:35:00,0.0,0,0.0
2014-04-03 15:40:00,0.0,0,0.0
2014-04-03 15:45:00,0.0,0,0.0
2014-04-03 15:50:00,0.0,0,0.0
2014-04-03 15:55:00,0.0,0,0.0
2014-04-03 16:00:00,0.0,0,0.0
2014-04-03 16:05:00,0.0,0,0.0
2014-04-03 16:10:00,0.0,0,0.0
2014-04-03 16:15:00,0.0,0,0.0
2014-04-03 16:20:00,0.0,0,0.0
2014-04-03 16:25:00,0.0,0,0.0
2014-04-03 16:30:00,0.0,0,0.0
2014-04-03 16:35:00,0.023370881194123828,0,0.023370881194123828
2014-04-03 16:40:00,0.4434455602316763,0,0.4434455602316763
2014-04-03 16:45:00,0.11430024862147035,0,0.11430024862147035
2014-04-03 16:50:00,0.04217918802172313,0,0.04217918802172313
2014-04-03 16:55:00,3.223838030288299e-05,0,3.223838030288299e-05
2014-04-03 17:00:00,0.0,0,0.0
2014-04-03 17:05:00,0.048804116838201586,0,0.048804116838201586
2014-04-03 17:10:00,0.4427279377381465,0,0.4427279377381465
2014-04-03 17:15:00,0.12348431184632692,0,0.12348431184632692
2014-04-03 17:20:00,0.0070971822900028235,0,0.0070971822900028235
2014-04-03 17:25:00,0.0,0,0.0
2014-04-03 17:30:00,0.0,0,0.0
2014-04-03 17:35:00,0.0,0,0.0
2014-04-03 17:40:00,0.0,0,0.0
2014-04-03 17:45:00,0.0,0,0.0
2014-04-03 17:50:00,0.0,0,0.0
2014-04-03 17:55:00,0.0,0,0.0
2014-04-03 18:00:00,0.0,0,0.0
2014-04-03 18:05:00,0.0,0,0.0
2014-04-03 18:10:00,0.0,0,0.0
2014-04-03 18:15:00,2.1808316087244373e-05,0,2.1808316087244373e-05
2014-04-03 18:20:00,0.0,0,0.0
2014-04-03 18:25:00,0.0,0,0.0
2014-04-03 18:30:00,0.0,0,0.0
2014-04-03 18:35:00,0.0,0,0.0
2014-04-03 18:40:00,0.0,0,0.0
2014-04-03 18:45:00,0.0,0,0.0
2014-04-03 18:50:00,0.0,0,0.0
2014-04-03 18:55:00,0.041897579065794416,0,0.041897579065794416
2014-04-03 19:00:00,0.3763258654295781,0,0.3763258654295781
2014-04-03 19:05:00,0.1632128190526457,0,0.1632128190526457
2014-04-03 19:10:00,0.04061280331124908,0,0.04061280331124908
2014-04-03 19:15:00,2.939381733498155e-05,0,2.939381733498155e-05
2014-04-03 19:20:00,0.0,0,0.0
2014-04-03 19:25:00,0.0,0,0.0
2014-04-03 19:30:00,0.0,0,0.0
2014-04-03 19:35:00,0.0,0,0.0
2014-04-03 19:40:00,0.0,0,0.0
2014-04-03 19:45:00,0.0,0,0.0
2014-04-03 19:50:00,0.0,0,0.0
2014-04-03 19:55:00,0.0,0,0.0
2014-04-03 20:00:00,0.0,0,0.0
2014-04-03 20:05:00,0.0,0,0.0
2014-04-03 20:10:00,0.023120639285896173,0,0.023120639285896173
2014-04-03 20:15:00,0.05906357209328166,0,0.05906357209328166
2014-04-03 20:20:00,0.4954755059238579,0,0.4954755059238579
2014-04-03 20:25:00,0.13121727294192814,0,0.13121727294192814
2014-04-03 20:30:00,0.00222729187790232,0,0.00222729187790232
2014-04-03 20:35:00,0.0,0,0.0
2014-04-03 20:40:00,0.0,0,0.0
2014-04-03 20:45:00,0.0,0,0.0
2014-04-03 20:50:00,0.0,0,0.0
2014-04-03 20:55:00,0.0,0,0.0
2014-04-03 21:00:00,0.0,0,0.0
2014-04-03 21:05:00,0.0,0,0.0
2014-04-03 21:10:00,0.0,0,0.0
2014-04-03 21:15:00,0.0,0,0.0
2014-04-03 21:20:00,0.0,0,0.0
2014-04-03 21:25:00,0.023329212791273708,0,0.023329212791273708
2014-04-03 21:30:00,0.22489825964970764,0,0.22489825964970764
2014-04-03 21:35:00,0.3308505909968471,0,0.3308505909968471
2014-04-03 21:40:00,0.044596071132593486,0,0.044596071132593486
2014-04-03 21:45:00,0.0234135913070452,0,0.0234135913070452
2014-04-03 21:50:00,0.3207448458500586,0,0.3207448458500586
2014-04-03 21:55:00,0.23612442185091045,0,0.23612442185091045
2014-04-03 22:00:00,0.043976948113578815,0,0.043976948113578815
2014-04-03 22:05:00,3.223838030288299e-05,0,3.223838030288299e-05
2014-04-03 22:10:00,1.9911940775310084e-05,0,1.9911940775310084e-05
2014-04-03 22:15:00,0.0,0,0.0
2014-04-03 22:20:00,0.0,0,0.0
2014-04-03 22:25:00,0.0,0,0.0
2014-04-03 22:30:00,0.0,0,0.0
2014-04-03 22:35:00,0.0,0,0.0
2014-04-03 22:40:00,0.0,0,0.0
2014-04-03 22:45:00,0.0,0,0.0
2014-04-03 22:50:00,0.0,0,0.0
2014-04-03 22:55:00,0.0,0,0.0
2014-04-03 23:00:00,0.0011055865753665662,0,0.0011055865753665662
2014-04-03 23:05:00,0.05318855878254187,0,0.05318855878254187
2014-04-03 23:10:00,0.523834326430268,0,0.523834326430268
2014-04-03 23:15:00,0.04109442060085837,0,0.04109442060085837
2014-04-03 23:20:00,0.0029431781879800546,0,0.0029431781879800546
2014-04-03 23:25:00,0.0,0,0.0
2014-04-03 23:30:00,0.0,0,0.0
2014-04-03 23:35:00,0.0,0,0.0
2014-04-03 23:40:00,0.0,0,0.0
2014-04-03 23:45:00,0.0,0,0.0
2014-04-03 23:50:00,0.0,0,0.0
2014-04-03 23:55:00,0.0,0,0.0
2014-04-04 00:00:00,0.0,0,0.0
2014-04-04 00:05:00,0.0,0,0.0
2014-04-04 00:10:00,0.0,0,0.0
2014-04-04 00:15:00,0.023188929168344974,0,0.023188929168344974
2014-04-04 00:20:00,0.17144232861554418,0,0.17144232861554418
2014-04-04 00:25:00,0.3830946659814529,0,0.3830946659814529
2014-04-04 00:30:00,0.042530012824608436,0,0.042530012824608436
2014-04-04 00:35:00,0.0019674893861318294,0,0.0019674893861318294
2014-04-04 00:40:00,0.0,0,0.0
2014-04-04 00:45:00,0.0,0,0.0
2014-04-04 00:50:00,0.0,0,0.0
2014-04-04 00:55:00,0.0,0,0.0
2014-04-04 01:00:00,0.0,0,0.0
2014-04-04 01:05:00,0.0,0,0.0
2014-04-04 01:10:00,0.0,0,0.0
2014-04-04 01:15:00,3.792750623868587e-05,0,3.792750623868587e-05
2014-04-04 01:20:00,0.0,0,0.0
2014-04-04 01:25:00,0.0,0,0.0
2014-04-04 01:30:00,0.0,0,0.0
2014-04-04 01:35:00,0.0,0,0.0
2014-04-04 01:40:00,0.0,0,0.0
2014-04-04 01:45:00,0.0,0,0.0
2014-04-04 01:50:00,0.0,0,0.0
2014-04-04 01:55:00,0.0,0,0.0
2014-04-04 02:00:00,0.0,0,0.0
2014-04-04 02:05:00,0.0,0,0.0
2014-04-04 02:10:00,0.0,0,0.0
2014-04-04 02:15:00,0.0,0,0.0
2014-04-04 02:20:00,0.0,0,0.0
2014-04-04 02:25:00,0.0,0,0.0
2014-04-04 02:30:00,0.0,0,0.0
2014-04-04 02:35:00,0.0,0,0.0
2014-04-04 02:40:00,0.0,0,0.0
2014-04-04 02:45:00,0.0,0,0.0
2014-04-04 02:50:00,0.0,0,0.0
2014-04-04 02:55:00,0.0,0,0.0
2014-04-04 03:00:00,0.0,0,0.0
2014-04-04 03:05:00,0.0,0,0.0
2014-04-04 03:10:00,0.0,0,0.0
2014-04-04 03:15:00,0.0,0,0.0
2014-04-04 03:20:00,0.0,0,0.0
2014-04-04 03:25:00,0.0,0,0.0
2014-04-04 03:30:00,0.0,0,0.0
2014-04-04 03:35:00,0.0,0,0.0
2014-04-04 03:40:00,0.0,0,0.0
2014-04-04 03:45:00,0.0,0,0.0
2014-04-04 03:50:00,0.0,0,0.0
2014-04-04 03:55:00,0.0,0,0.0
2014-04-04 04:00:00,0.0,0,0.0
2014-04-04 04:05:00,0.0,0,0.0
2014-04-04 04:10:00,0.0,0,0.0
2014-04-04 04:15:00,0.0,0,0.0
2014-04-04 04:20:00,0.0,0,0.0
2014-04-04 04:25:00,0.0,0,0.0
2014-04-04 04:30:00,0.0,0,0.0
2014-04-04 04:35:00,0.0,0,0.0
2014-04-04 04:40:00,0.0,0,0.0
2014-04-04 04:45:00,0.0,0,0.0
2014-04-04 04:50:00,0.0,0,0.0
2014-04-04 04:55:00,0.0,0,0.0
2014-04-04 05:00:00,0.0,0,0.0
2014-04-04 05:05:00,3.7927506238685883e-06,0,3.7927506238685883e-06
2014-04-04 05:10:00,0.0,0,0.0
2014-04-04 05:15:00,0.0,0,0.0
2014-04-04 05:20:00,0.0,0,0.0
2014-04-04 05:25:00,0.0,0,0.0
2014-04-04 05:30:00,0.0,0,0.0
2014-04-04 05:35:00,0.0,0,0.0
2014-04-04 05:40:00,0.0,0,0.0
2014-04-04 05:45:00,0.0,0,0.0
2014-04-04 05:50:00,0.0,0,0.0
2014-04-04 05:55:00,0.0,0,0.0
2014-04-04 06:00:00,0.0018849975230449414,0,0.0018849975230449414
2014-04-04 06:05:00,2.5601066711112963e-05,0,2.5601066711112963e-05
2014-04-04 06:10:00,0.0,0,0.0
2014-04-04 06:15:00,0.04610655073591029,0,0.04610655073591029
2014-04-04 06:20:00,0.43769069081582107,0,0.43769069081582107
2014-04-04 06:25:00,0.10389865781444596,0,0.10389865781444596
2014-04-04 06:30:00,0.040312212082910866,0,0.040312212082910866
2014-04-04 06:35:00,3.1290192646915835e-05,0,3.1290192646915835e-05
2014-04-04 06:40:00,0.0,0,0.0
2014-04-04 06:45:00,0.0,0,0.0
2014-04-04 06:50:00,0.0,0,0.0
2014-04-04 06:55:00,0.0,0,0.0
2014-04-04 07:00:00,0.0,0,0.0
2014-04-04 07:05:00,0.0,0,0.0
2014-04-04 07:10:00,0.0,0,0.0
2014-04-04 07:15:00,0.0,0,0.0
2014-04-04 07:20:00,0.0,0,0.0
2014-04-04 07:25:00,0.0,0,0.0
2014-04-04 07:30:00,0.0,0,0.0
2014-04-04 07:35:00,0.0,0,0.0
2014-04-04 07:40:00,0.0,0,0.0
2014-04-04 07:45:00,0.0,0,0.0
2014-04-04 07:50:00,0.0,0,0.0
2014-04-04 07:55:00,0.0,0,0.0
2014-04-04 08:00:00,0.0,0,0.0
2014-04-04 08:05:00,0.0,0,0.0
2014-04-04 08:10:00,0.0,0,0.0
2014-04-04 08:15:00,0.0,0,0.0
2014-04-04 08:20:00,0.0,0,0.0
2014-04-04 08:25:00,0.0,0,0.0
2014-04-04 08:30:00,0.0,0,0.0
2014-04-04 08:35:00,0.0,0,0.0
2014-04-04 08:40:00,0.0,0,0.0
2014-04-04 08:45:00,0.0,0,0.0
2014-04-04 08:50:00,0.0,0,0.0
2014-04-04 08:55:00,0.0,0,0.0
2014-04-04 09:00:00,0.0,0,0.0
2014-04-04 09:05:00,0.0,0,0.0
2014-04-04 09:10:00,0.0,0,0.0
2014-04-04 09:15:00,0.0,0,0.0
2014-04-04 09:20:00,0.0,0,0.0
2014-04-04 09:25:00,0.0,0,0.0
2014-04-04 09:30:00,0.0,0,0.0
2014-04-04 09:35:00,0.0,0,0.0
2014-04-04 09:40:00,7.585501247737175e-06,0,7.585501247737175e-06
2014-04-04 09:45:00,3.7927506238685883e-06,0,3.7927506238685883e-06
2014-04-04 09:50:00,0.0,0,0.0
2014-04-04 09:55:00,0.0,0,0.0
2014-04-04 10:00:00,0.0,0,0.0
2014-04-04 10:05:00,0.0,0,0.0
2014-04-04 10:10:00,0.0,0,0.0
2014-04-04 10:15:00,0.0,0,0.0
2014-04-04 10:20:00,0.0,0,0.0
2014-04-04 10:25:00,0.0,0,0.0
2014-04-04 10:30:00,0.0,0,0.0
2014-04-04 10:35:00,0.0,0,0.0
2014-04-04 10:40:00,0.0,0,0.0
2014-04-04 10:45:00,0.0,0,0.0
2014-04-04 10:50:00,0.050675838345116235,0,0.050675838345116235
2014-04-04 10:55:00,0.527329842447139,0,0.527329842447139
2014-04-04 11:00:00,0.04043640707251691,0,0.04043640707251691
2014-04-04 11:05:00,0.004432777291646412,0,0.004432777291646412
2014-04-04 11:10:00,3.7927506238685883e-06,0,3.7927506238685883e-06
2014-04-04 11:15:00,0.0,0,0.0
2014-04-04 11:20:00,0.0,0,0.0
2014-04-04 11:25:00,0.0,0,0.0
2014-04-04 11:30:00,0.0,0,0.0
2014-04-04 11:35:00,0.0,0,0.0
2014-04-04 11:40:00,0.0,0,0.0
2014-04-04 11:45:00,0.0,0,0.0
2014-04-04 11:50:00,0.0,0,0.0
2014-04-04 11:55:00,0.0,0,0.0
2014-04-04 12:00:00,0.0,0,0.0
2014-04-04 12:05:00,0.0,0,0.0
2014-04-04 12:10:00,0.0,0,0.0
2014-04-04 12:15:00,0.0,0,0.0
2014-04-04 12:20:00,0.0,0,0.0
2014-04-04 12:25:00,0.0,0,0.0
2014-04-04 12:30:00,0.0,0,0.0
2014-04-04 12:35:00,0.0,0,0.0
2014-04-04 12:40:00,0.0,0,0.0
2014-04-04 12:45:00,0.0,0,0.0
2014-04-04 12:50:00,0.0,0,0.0
2014-04-04 12:55:00,0.0,0,0.0
2014-04-04 13:00:00,0.0,0,0.0
2014-04-04 13:05:00,0.0,0,0.0
2014-04-04 13:10:00,0.0,0,0.0
2014-04-04 13:15:00,0.0,0,0.0
2014-04-04 13:20:00,0.0,0,0.0
2014-04-04 13:25:00,0.0,0,0.0
2014-04-04 13:30:00,0.0,0,0.0
2014-04-04 13:35:00,0.0,0,0.0
2014-04-04 13:40:00,0.0,0,0.0
2014-04-04 13:45:00,0.0,0,0.0
2014-04-04 13:50:00,0.0,0,0.0
2014-04-04 13:55:00,0.0,0,0.0
2014-04-04 14:00:00,0.0,0,0.0
2014-04-04 14:05:00,0.0,0,0.0
2014-04-04 14:10:00,0.0,0,0.0
2014-04-04 14:15:00,0.0,0,0.0
2014-04-04 14:20:00,0.0,0,0.0
2014-04-04 14:25:00,0.0,0,0.0
2014-04-04 14:30:00,0.0,0,0.0
2014-04-04 14:35:00,0.0,0,0.0
2014-04-04 14:40:00,0.0,0,0.0
2014-04-04 14:45:00,0.0,0,0.0
2014-04-04 14:50:00,0.0,0,0.0
2014-04-04 14:55:00,0.0,0,0.0
2014-04-04 15:00:00,0.0,0,0.0
2014-04-04 15:05:00,0.0,0,0.0
2014-04-04 15:10:00,0.0,0,0.0
2014-04-04 15:15:00,0.0,0,0.0
2014-04-04 15:20:00,0.0,0,0.0
2014-04-04 15:25:00,0.0,0,0.0
2014-04-04 15:30:00,0.0,0,0.0
2014-04-04 15:35:00,0.0,0,0.0
2014-04-04 15:40:00,0.0,0,0.0
2014-04-04 15:45:00,0.0,0,0.0
2014-04-04 15:50:00,0.0,0,0.0
2014-04-04 15:55:00,0.0,0,0.0
2014-04-04 16:00:00,0.0,0,0.0
2014-04-04 16:05:00,0.0,0,0.0
2014-04-04 16:10:00,0.0,0,0.0
2014-04-04 16:15:00,0.0,0,0.0
2014-04-04 16:20:00,0.0,0,0.0
2014-04-04 16:25:00,0.0,0,0.0
2014-04-04 16:30:00,0.0,0,0.0
2014-04-04 16:35:00,0.0,0,0.0
2014-04-04 16:40:00,0.0,0,0.0
2014-04-04 16:45:00,0.0,0,0.0
2014-04-04 16:50:00,0.0,0,0.0
2014-04-04 16:55:00,0.0,0,0.0
2014-04-04 17:00:00,0.0,0,0.0
2014-04-04 17:05:00,0.0,0,0.0
2014-04-04 17:10:00,0.0,0,0.0
2014-04-04 17:15:00,0.0,0,0.0
2014-04-04 17:20:00,3.982388155062017e-05,0,3.982388155062017e-05
2014-04-04 17:25:00,0.0,0,0.0
2014-04-04 17:30:00,0.0012734211147686712,0,0.0012734211147686712
2014-04-04 17:35:00,1.4222814839507202e-05,0,1.4222814839507202e-05
2014-04-04 17:40:00,0.00033091772342366116,0,0.00033091772342366116
2014-04-04 17:45:00,0.0,0,0.0
2014-04-04 17:50:00,0.0,0,0.0
2014-04-04 17:55:00,0.0,0,0.0
2014-04-04 18:00:00,0.0,0,0.0
2014-04-04 18:05:00,0.0,0,0.0
2014-04-04 18:10:00,2.370469139917867e-05,0,2.370469139917867e-05
2014-04-04 18:15:00,0.0,0,0.0
2014-04-04 18:20:00,0.0,0,0.0
2014-04-04 18:25:00,0.0,0,0.0
2014-04-04 18:30:00,0.0016195003495516015,0,0.0016195003495516015
2014-04-04 18:35:00,1.2326439527572909e-05,0,1.2326439527572909e-05
2014-04-04 18:40:00,3.7927506238685883e-06,0,3.7927506238685883e-06
2014-04-04 18:45:00,0.05429983193744184,0,0.05429983193744184
2014-04-04 18:50:00,0.5237822409267053,0,0.5237822409267053
2014-04-04 18:55:00,0.04169085748943243,0,0.04169085748943243
2014-04-04 19:00:00,0.0032001333388891203,0,0.0032001333388891203
2014-04-04 19:05:00,0.0,0,0.0
2014-04-04 19:10:00,0.0,0,0.0
2014-04-04 19:15:00,0.0,0,0.0
2014-04-04 19:20:00,0.0,0,0.0
2014-04-04 19:25:00,0.0,0,0.0
2014-04-04 19:30:00,0.0,0,0.0
2014-04-04 19:35:00,0.04886580922353246,0,0.04886580922353246
2014-04-04 19:40:00,0.5288009685588752,0,0.5288009685588752
2014-04-04 19:45:00,0.03824418610034677,0,0.03824418610034677
2014-04-04 19:50:00,0.006921769888560171,0,0.006921769888560171
2014-04-04 19:55:00,1.0430064215638617e-05,0,1.0430064215638617e-05
2014-04-04 20:00:00,0.0,0,0.0
2014-04-04 20:05:00,0.0,0,0.0
2014-04-04 20:10:00,0.0016242459176539765,0,0.0016242459176539765
2014-04-04 20:15:00,0.0,0,0.0
2014-04-04 20:20:00,0.0013236662638721056,0,0.0013236662638721056
2014-04-04 20:25:00,0.0,0,0.0
2014-04-04 20:30:00,0.0,0,0.0
2014-04-04 20:35:00,0.0,0,0.0
2014-04-04 20:40:00,2.1808316087244373e-05,0,2.1808316087244373e-05
2014-04-04 20:45:00,0.0,0,0.0
2014-04-04 20:50:00,0.0226891398252705,0,0.0226891398252705
2014-04-04 20:55:00,0.03926066363876272,0,0.03926066363876272
2014-04-04 21:00:00,0.4315040904482131,0,0.4315040904482131
2014-04-04 21:05:00,0.08751579926941401,0,0.08751579926941401
2014-04-04 21:10:00,0.0533203929793371,0,0.0533203929793371
2014-04-04 21:15:00,0.003399250431730952,0,0.003399250431730952
2014-04-04 21:20:00,3.1290192646915835e-05,0,3.1290192646915835e-05
2014-04-04 21:25:00,0.0,0,0.0
2014-04-04 21:30:00,0.0,0,0.0
2014-04-04 21:35:00,3.7927506238685883e-06,0,3.7927506238685883e-06
2014-04-04 21:40:00,0.0,0,0.0
2014-04-04 21:45:00,0.0,0,0.0
2014-04-04 21:50:00,0.0,0,0.0
2014-04-04 21:55:00,3.7927506238685883e-06,0,3.7927506238685883e-06
2014-04-04 22:00:00,0.0017456167155112945,0,0.0017456167155112945
2014-04-04 22:05:00,0.001331259172835905,0,0.001331259172835905
2014-04-04 22:10:00,0.0,0,0.0
2014-04-04 22:15:00,0.0,0,0.0
2014-04-04 22:20:00,0.0,0,0.0
2014-04-04 22:25:00,0.0,0,0.0
2014-04-04 22:30:00,0.0,0,0.0
2014-04-04 22:35:00,0.0,0,0.0
2014-04-04 22:40:00,0.0,0,0.0
2014-04-04 22:45:00,0.0,0,0.0
2014-04-04 22:50:00,0.0,0,0.0
2014-04-04 22:55:00,0.0,0,0.0
2014-04-04 23:00:00,0.0,0,0.0
2014-04-04 23:05:00,0.0,0,0.0
2014-04-04 23:10:00,0.02313765388372664,0,0.02313765388372664
2014-04-04 23:15:00,0.05396324383886365,0,0.05396324383886365
2014-04-04 23:20:00,0.5040360477982879,0,0.5040360477982879
2014-04-04 23:25:00,0.042197244329624836,0,0.042197244329624836
2014-04-04 23:30:00,0.002523125963581816,0,0.002523125963581816
2014-04-04 23:35:00,0.0,0,0.0
2014-04-04 23:40:00,0.0,0,0.0
2014-04-04 23:45:00,0.0,0,0.0
2014-04-04 23:50:00,0.0,0,0.0
2014-04-04 23:55:00,0.0,0,0.0
2014-04-05 00:00:00,0.0,0,0.0
2014-04-05 00:05:00,0.0,0,0.0
2014-04-05 00:10:00,0.0,0,0.0
2014-04-05 00:15:00,0.0,0,0.0
2014-04-05 00:20:00,0.0,0,0.0
2014-04-05 00:25:00,0.0,0,0.0
2014-04-05 00:30:00,0.0,0,0.0
2014-04-05 00:35:00,0.0,0,0.0
2014-04-05 00:40:00,0.0,0,0.0
2014-04-05 00:45:00,0.0,0,0.0
2014-04-05 00:50:00,0.0,0,0.0
2014-04-05 00:55:00,0.0,0,0.0
2014-04-05 01:00:00,0.0,0,0.0
2014-04-05 01:05:00,0.0,0,0.0
2014-04-05 01:10:00,0.0,0,0.0
2014-04-05 01:15:00,0.0,0,0.0
2014-04-05 01:20:00,0.0,0,0.0
2014-04-05 01:25:00,0.0,0,0.0
2014-04-05 01:30:00,0.0,0,0.0
2014-04-05 01:35:00,0.0,0,0.0
2014-04-05 01:40:00,0.0,0,0.0
2014-04-05 01:45:00,0.0,0,0.0
2014-04-05 01:50:00,0.0,0,0.0
2014-04-05 01:55:00,0.0,0,0.0
2014-04-05 02:00:00,0.0,0,0.0
2014-04-05 02:05:00,0.0,0,0.0
2014-04-05 02:10:00,0.0,0,0.0
2014-04-05 02:15:00,0.0,0,0.0
2014-04-05 02:20:00,0.0,0,0.0
2014-04-05 02:25:00,0.0,0,0.0
2014-04-05 02:30:00,0.0,0,0.0
2014-04-05 02:35:00,0.0,0,0.0
2014-04-05 02:40:00,0.0,0,0.0
2014-04-05 02:45:00,0.0,0,0.0
2014-04-05 02:50:00,0.0,0,0.0
2014-04-05 02:55:00,0.0,0,0.0
2014-04-05 03:00:00,0.0,0,0.0
2014-04-05 03:05:00,0.0,0,0.0
2014-04-05 03:10:00,0.0,0,0.0
2014-04-05 03:15:00,0.0,0,0.0
2014-04-05 03:20:00,0.0,0,0.0
2014-04-05 03:25:00,0.0,0,0.0
2014-04-05 03:30:00,0.0,0,0.0
2014-04-05 03:35:00,0.0,0,0.0
2014-04-05 03:40:00,0.0,0,0.0
2014-04-05 03:45:00,0.0,0,0.0
2014-04-05 03:50:00,0.0,0,0.0
2014-04-05 03:55:00,0.0,0,0.0
2014-04-05 04:00:00,0.0,0,0.0
2014-04-05 04:05:00,0.0,0,0.0
2014-04-05 04:10:00,0.0,0,0.0
2014-04-05 04:15:00,0.0,0,0.0
2014-04-05 04:20:00,0.0,0,0.0
2014-04-05 04:25:00,0.0,0,0.0
2014-04-05 04:30:00,0.0,0,0.0
2014-04-05 04:35:00,0.0,0,0.0
2014-04-05 04:40:00,0.0,0,0.0
2014-04-05 04:45:00,0.0,0,0.0
2014-04-05 04:50:00,0.0,0,0.0
2014-04-05 04:55:00,0.0,0,0.0
2014-04-05 05:00:00,0.0,0,0.0
2014-04-05 05:05:00,0.0,0,0.0
2014-04-05 05:10:00,0.0,0,0.0
2014-04-05 05:15:00,0.0,0,0.0
2014-04-05 05:20:00,0.0,0,0.0
2014-04-05 05:25:00,0.001484865110120329,0,0.001484865110120329
2014-04-05 05:30:00,0.057691524183878025,0,0.057691524183878025
2014-04-05 05:35:00,0.5191269543638393,0,0.5191269543638393
2014-04-05 05:40:00,0.04166238408081818,0,0.04166238408081818
2014-04-05 05:45:00,0.003142295280821886,0,0.003142295280821886
2014-04-05 05:50:00,0.0,0,0.0
2014-04-05 05:55:00,0.0,0,0.0
2014-04-05 06:00:00,0.0,0,0.0
2014-04-05 06:05:00,0.0,0,0.0
2014-04-05 06:10:00,0.0,0,0.0
2014-04-05 06:15:00,0.0,0,0.0
2014-04-05 06:20:00,0.0,0,0.0
2014-04-05 06:25:00,0.0,0,0.0
2014-04-05 06:30:00,0.0,0,0.0
2014-04-05 06:35:00,0.0,0,0.0
2014-04-05 06:40:00,0.0,0,0.0
2014-04-05 06:45:00,0.0,0,0.0
2014-04-05 06:50:00,0.0,0,0.0
2014-04-05 06:55:00,0.0,0,0.0
2014-04-05 07:00:00,0.0,0,0.0
2014-04-05 07:05:00,0.0,0,0.0
2014-04-05 07:10:00,0.0,0,0.0
2014-04-05 07:15:00,0.0,0,0.0
2014-04-05 07:20:00,0.0,0,0.0
2014-04-05 07:25:00,0.0,0,0.0
2014-04-05 07:30:00,0.0,0,0.0
2014-04-05 07:35:00,0.0,0,0.0
2014-04-05 07:40:00,0.0,0,0.0
2014-04-05 07:45:00,0.0,0,0.0
2014-04-05 07:50:00,0.0,0,0.0
2014-04-05 07:55:00,0.0,0,0.0
2014-04-05 08:00:00,0.0,0,0.0
2014-04-05 08:05:00,0.0,0,0.0
2014-04-05 08:10:00,0.0,0,0.0
2014-04-05 08:15:00,0.0,0,0.0
2014-04-05 08:20:00,0.0,0,0.0
2014-04-05 08:25:00,0.0,0,0.0
2014-04-05 08:30:00,0.0,0,0.0
2014-04-05 08:35:00,0.0,0,0.0
2014-04-05 08:40:00,0.0,0,0.0
2014-04-05 08:45:00,0.0,0,0.0
2014-04-05 08:50:00,0.0,0,0.0
2014-04-05 08:55:00,0.0,0,0.0
2014-04-05 09:00:00,0.0,0,0.0
2014-04-05 09:05:00,0.0,0,0.0
2014-04-05 09:10:00,0.0,0,0.0
2014-04-05 09:15:00,0.0,0,0.0
2014-04-05 09:20:00,0.0,0,0.0
2014-04-05 09:25:00,0.0,0,0.0
2014-04-05 09:30:00,0.0,0,0.0
2014-04-05 09:35:00,0.0,0,0.0
2014-04-05 09:40:00,0.0,0,0.0
2014-04-05 09:45:00,0.0,0,0.0
2014-04-05 09:50:00,0.0,0,0.0
2014-04-05 09:55:00,0.0,0,0.0
2014-04-05 10:00:00,0.0,0,0.0
2014-04-05 10:05:00,0.0,0,0.0
2014-04-05 10:10:00,0.0,0,0.0
2014-04-05 10:15:00,0.0,0,0.0
2014-04-05 10:20:00,0.0,0,0.0