timestamp,value,is_anomaly,anomaly_score,S(t)_reward_low_FP_rate,S(t)_reward_low_FN_rate,S(t)_standard,predicted_anomaly
2014-04-10 00:02:00,0.0217603220025,0,0.5,0.0,0.0,0.0,0
2014-04-10 00:07:00,0.0111002798654,0,0.5,0.0,0.0,0.0,0
2014-04-10 00:12:00,0.0372944247036,0,0.5,0.0,0.0,0.0,0
2014-04-10 00:17:00,0.0215402031383,0,0.5,0.0,0.0,0.0,0
2014-04-10 00:22:00,0.0267916103267,0,0.5,0.0,0.0,0.0,0
2014-04-10 00:27:00,0.0373258702557,0,0.5,0.0,0.0,0.0,0
2014-04-10 00:32:00,0.0213200842741,0,0.5,0.0,0.0,0.0,0
2014-04-10 00:37:00,0.0321687997233,0,0.5,0.0,0.0,0.0,0
2014-04-10 00:42:00,0.0320744630672,0,0.5,0.0,0.0,0.0,0
2014-04-10 00:47:00,0.0163202415018,0,0.5,0.0,0.0,0.0,0
2014-04-10 00:52:00,0.0111002798654,0,0.5,0.0,0.0,0.0,0
2014-04-10 00:57:00,0.0380176724002,0,0.5,0.0,0.0,0.0,0
2014-04-10 01:02:00,0.0110688343134,0,0.5,0.0,0.0,0.0,0
2014-04-10 01:07:00,0.0372944247036,0,0.5,0.0,0.0,0.0,0
2014-04-10 01:12:00,0.0372944247036,0,0.5,0.0,0.0,0.0,0
2014-04-10 01:17:00,0.0273576302632,0,0.5,0.0,0.0,0.0,0
2014-04-10 01:22:00,0.0163202415018,0,0.5,0.0,0.0,0.0,0
2014-04-10 01:27:00,0.0425143863401,0,0.5,0.0,0.0,0.0,0
2014-04-10 01:32:00,0.0268230558787,0,0.5,0.0,0.0,0.0,0
2014-04-10 01:37:00,0.0268545014308,0,0.5,0.0,0.0,0.0,0
2014-04-10 01:42:00,0.0215716486903,0,0.5,0.0,0.0,0.0,0
2014-04-10 01:47:00,0.0267916103267,0,0.5,0.0,0.0,0.0,0
2014-04-10 01:52:00,0.0110688343134,0,0.5,0.0,0.0,0.0,0
2014-04-10 01:57:00,0.0372629791516,0,0.5,0.0,0.0,0.0,0
2014-04-10 02:02:00,0.0163202415018,0,0.5,0.0,0.0,0.0,0
2014-04-10 02:07:00,0.0163831326059,0,0.5,0.0,0.0,0.0,0
2014-04-10 02:12:00,0.0320744630672,0,0.5,0.0,0.0,0.0,0
2014-04-10 02:17:00,0.0268230558787,0,0.5,0.0,0.0,0.0,0
2014-04-10 02:22:00,0.0263513725983,0,0.5,0.0,0.0,0.0,0
2014-04-10 02:27:00,0.0378918901921,0,0.5,0.0,0.0,0.0,0
2014-04-10 02:32:00,0.0163202415018,0,0.5,0.0,0.0,0.0,0
2014-04-10 02:37:00,0.0268230558787,0,0.5,0.0,0.0,0.0,0
2014-04-10 02:42:00,0.0215716486903,0,0.5,0.0,0.0,0.0,0
2014-04-10 02:47:00,0.0320430175152,0,0.5,0.0,0.0,0.0,0
2014-04-10 02:52:00,0.00584887267696,0,0.5,0.0,0.0,0.0,0
2014-04-10 02:57:00,0.0268230558787,0,0.5,0.0,0.0,0.0,0
2014-04-10 03:02:00,0.0319172353071,0,0.5,0.0,0.0,0.0,0
2014-04-10 03:07:00,0.0215716486903,0,0.5,0.0,0.0,0.0,0
2014-04-10 03:12:00,0.0265714914625,0,0.5,0.0,0.0,0.0,0
2014-04-10 03:17:00,0.025942580422,0,0.5,0.0,0.0,0.0,0
2014-04-10 03:22:00,0.0326719285557,0,0.5,0.0,0.0,0.0,0
2014-04-10 03:27:00,0.0268230558787,0,0.5,0.0,0.0,0.0,0
2014-04-10 03:32:00,0.0215716486903,0,0.5,0.0,0.0,0.0,0
2014-04-10 03:37:00,0.0324832552435,0,0.5,0.0,0.0,0.0,0
2014-04-10 03:42:00,0.0268230558787,0,0.5,0.0,0.0,0.0,0
2014-04-10 03:47:00,0.0216030942423,0,0.5,0.0,0.0,0.0,0
2014-04-10 03:52:00,0.0171063803025,0,0.5,0.0,0.0,0.0,0
2014-04-10 03:57:00,0.0209741832018,0,0.5,0.0,0.0,0.0,0
2014-04-10 04:02:00,0.0215402031383,0,0.5,0.0,0.0,0.0,0
2014-04-10 04:07:00,0.0216030942423,0,0.5,0.0,0.0,0.0,0
2014-04-10 04:12:00,0.0215716486903,0,0.5,0.0,0.0,0.0,0
2014-04-10 04:17:00,0.0110688343134,0,0.5,0.0,0.0,0.0,0
2014-04-10 04:22:00,0.0268545014308,0,0.5,0.0,0.0,0.0,0
2014-04-10 04:27:00,0.0169805980944,0,0.5,0.0,0.0,0.0,0
2014-04-10 04:32:00,0.0215402031383,0,0.5,0.0,0.0,0.0,0
2014-04-10 04:37:00,0.0162887959498,0,0.5,0.0,0.0,0.0,0
2014-04-10 04:42:00,0.0163202415018,0,0.5,0.0,0.0,0.0,0
2014-04-10 04:47:00,0.0209112920977,0,0.5,0.0,0.0,0.0,0
2014-04-10 04:52:00,0.0171063803025,0,0.5,0.0,0.0,0.0,0
2014-04-10 04:57:00,0.0263828181504,0,0.5,0.0,0.0,0.0,0
2014-04-10 05:02:00,0.0110688343134,0,0.5,0.0,0.0,0.0,0
2014-04-10 05:07:00,0.0155655482532,0,0.5,0.0,0.0,0.0,0
2014-04-10 05:12:00,0.0163202415018,0,0.5,0.0,0.0,0.0,0
2014-04-10 05:17:00,0.0215716486903,0,0.5,0.0,0.0,0.0,0
2014-04-10 05:22:00,0.0215716486903,0,0.5,0.0,0.0,0.0,0
2014-04-10 05:27:00,0.0111002798654,0,0.5,0.0,0.0,0.0,0
2014-04-10 05:32:00,0.0215402031383,0,0.5,0.0,0.0,0.0,0
2014-04-10 05:37:00,0.0215716486903,0,0.5,0.0,0.0,0.0,0
2014-04-10 05:42:00,0.0320744630672,0,0.5,0.0,0.0,0.0,0
2014-04-10 05:47:00,0.0163202415018,0,0.5,0.0,0.0,0.0,0
2014-04-10 05:52:00,0.0163516870539,0,0.5,0.0,0.0,0.0,0
2014-04-10 05:57:00,0.0267916103267,0,0.5,0.0,0.0,0.0,0
2014-04-10 06:02:00,0.0268230558787,0,0.5,0.0,0.0,0.0,0
2014-04-10 06:07:00,0.0111317254174,0,0.5,0.0,0.0,0.0,0
2014-04-10 06:12:00,0.0163202415018,0,0.5,0.0,0.0,0.0,0
2014-04-10 06:17:00,0.0214773120342,0,0.5,0.0,0.0,0.0,0
2014-04-10 06:22:00,0.022452124147,0,0.5,0.0,0.0,0.0,0
2014-04-10 06:27:00,0.0315713342348,0,0.5,0.0,0.0,0.0,0
2014-04-10 06:32:00,0.0276091946794,0,0.5,0.0,0.0,0.0,0
2014-04-10 06:37:00,0.0106914876891,0,0.5,0.0,0.0,0.0,0
2014-04-10 06:42:00,0.0268230558787,0,0.5,0.0,0.0,0.0,0
2014-04-10 06:47:00,0.0111002798654,0,0.5,0.0,0.0,0.0,0
2014-04-10 06:52:00,0.0273261847112,0,0.5,0.0,0.0,0.0,0
2014-04-10 06:57:00,0.0215716486903,0,0.5,0.0,0.0,0.0,0
2014-04-10 07:02:00,0.0215716486903,0,0.5,0.0,0.0,0.0,0
2014-04-10 07:07:00,0.0163516870539,0,0.5,0.0,0.0,0.0,0
2014-04-10 07:12:00,0.0215716486903,0,0.5,0.0,0.0,0.0,0
2014-04-10 07:17:00,0.0174837269268,0,0.5,0.0,0.0,0.0,0
2014-04-10 07:22:00,0.0210685198579,0,0.5,0.0,0.0,0.0,0
2014-04-10 07:27:00,0.0163202415018,0,0.5,0.0,0.0,0.0,0
2014-04-10 07:32:00,0.0215716486903,0,0.5,0.0,0.0,0.0,0
2014-04-10 07:37:00,0.0110373887614,0,0.5,0.0,0.0,0.0,0
2014-04-10 07:42:00,0.0215716486903,0,0.5,0.0,0.0,0.0,0
2014-04-10 07:47:00,0.0208169554417,0,0.5,0.0,0.0,0.0,0
2014-04-10 07:52:00,0.053017200717,0,0.5,0.0,0.0,0.0,0
2014-04-10 07:57:00,0.0215716486903,0,0.5,0.0,0.0,0.0,0
2014-04-10 08:02:00,0.0112575076255,0,0.5,0.0,0.0,0.0,0
2014-04-10 08:07:00,0.0163516870539,0,0.5,0.0,0.0,0.0,0
2014-04-10 08:12:00,0.0215716486903,0,0.5,0.0,0.0,0.0,0
2014-04-10 08:17:00,0.0111002798654,0,0.5,0.0,0.0,0.0,0
2014-04-10 08:22:00,0.0320744630672,0,0.5,0.0,0.0,0.0,0
2014-04-10 08:27:00,0.0228923618754,0,0.5,0.0,0.0,0.0,0
2014-04-10 08:32:00,0.0160057859816,0,0.5,0.0,0.0,0.0,0
2014-04-10 08:37:00,0.0111002798654,0,0.5,0.0,0.0,0.0,0
2014-04-10 08:42:00,0.0215716486903,0,0.5,0.0,0.0,0.0,0
2014-04-10 08:47:00,0.00584887267696,0,0.5,0.0,0.0,0.0,0
2014-04-10 08:52:00,0.0163202415018,0,0.5,0.0,0.0,0.0,0
2014-04-10 08:57:00,0.0268230558787,0,0.5,0.0,0.0,0.0,0
2014-04-10 09:02:00,0.0163202415018,0,0.5,0.0,0.0,0.0,0
2014-04-10 09:07:00,0.0261312537342,0,0.5,0.0,0.0,0.0,0
2014-04-10 09:12:00,0.0215716486903,0,0.5,0.0,0.0,0.0,0
2014-04-10 09:17:00,0.0119178642181,0,0.5,0.0,0.0,0.0,0
2014-04-10 09:22:00,0.0215716486903,0,0.5,0.0,0.0,0.0,0
2014-04-10 09:27:00,0.0161944592937,0,0.5,0.0,0.0,0.0,0
2014-04-10 09:32:00,0.0108487154492,0,0.5,0.0,0.0,0.0,0
2014-04-10 09:37:00,0.0163202415018,0,0.5,0.0,0.0,0.0,0
2014-04-10 09:42:00,0.0111946165215,0,0.5,0.0,0.0,0.0,0
2014-04-10 09:47:00,0.0111002798654,0,0.5,0.0,0.0,0.0,0
2014-04-10 09:52:00,0.0163202415018,0,0.5,0.0,0.0,0.0,0
2014-04-10 09:57:00,0.00581742712493,0,0.5,0.0,0.0,0.0,0
2014-04-10 10:02:00,0.0267916103267,0,0.5,0.0,0.0,0.0,0
2014-04-10 10:07:00,0.0163516870539,0,0.5,0.0,0.0,0.0,0
2014-04-10 10:12:00,0.0163202415018,0,0.5,0.0,0.0,0.0,0
2014-04-10 10:17:00,0.0110688343134,0,0.5,0.0,0.0,0.0,0
2014-04-10 10:22:00,0.0109116065533,0,0.5,0.0,0.0,0.0,0
2014-04-10 10:27:00,0.0163516870539,0,0.5,0.0,0.0,0.0,0
2014-04-10 10:32:00,0.0215716486903,0,0.5,0.0,0.0,0.0,0
2014-04-10 10:37:00,0.0110688343134,0,0.5,0.0,0.0,0.0,0
2014-04-10 10:42:00,0.0215716486903,0,0.5,0.0,0.0,0.0,0
2014-04-10 10:47:00,0.0103455866168,0,0.5,0.0,0.0,0.0,0
2014-04-10 10:52:00,0.00581742712493,0,0.5,0.0,0.0,0.0,0
2014-04-10 10:57:00,0.0163202415018,0,0.5,0.0,0.0,0.0,0
2014-04-10 11:02:00,0.0163202415018,0,0.5,0.0,0.0,0.0,0
2014-04-10 11:07:00,0.0111002798654,0,0.5,0.0,0.0,0.0,0
2014-04-10 11:12:00,0.0166975881262,0,0.5,0.0,0.0,0.0,0
2014-04-10 11:17:00,0.0103455866168,0,0.5,0.0,0.0,0.0,0
2014-04-10 11:22:00,0.0268230558787,0,0.5,0.0,0.0,0.0,0
2014-04-10 11:27:00,0.00569164491683,0,0.5,0.0,0.0,0.0,0
2014-04-10 11:32:00,0.0172007169586,0,0.5,0.0,0.0,0.0,0
2014-04-10 11:37:00,0.0106914876891,0,0.5,0.0,0.0,0.0,0
2014-04-10 11:42:00,0.0110688343134,0,0.5,0.0,0.0,0.0,0
2014-04-10 11:47:00,0.0163202415018,0,0.5,0.0,0.0,0.0,0
2014-04-10 11:52:00,0.00619477374925,0,0.5,0.0,0.0,0.0,0
2014-04-10 11:57:00,0.0208169554417,0,0.5,0.0,0.0,0.0,0
2014-04-10 12:02:00,0.00572309046885,0,0.5,0.0,0.0,0.0,0
2014-04-10 12:07:00,0.0169177069903,0,0.5,0.0,0.0,0.0,0
2014-04-10 12:12:00,0.0163202415018,0,0.5,0.0,0.0,0.0,0
2014-04-10 12:17:00,0.011823527562,0,0.5,0.0,0.0,0.0,0
2014-04-10 12:22:00,0.0265400459105,0,0.5,0.0,0.0,0.0,0
2014-04-10 12:27:00,0.0215716486903,0,0.5,0.0,0.0,0.0,0
2014-04-10 12:32:00,0.0215716486903,0,0.5,0.0,0.0,0.0,0
2014-04-10 12:37:00,0.0267916103267,0,0.5,0.0,0.0,0.0,0
2014-04-10 12:42:00,0.0110688343134,0,0.5,0.0,0.0,0.0,0
2014-04-10 12:47:00,0.0214144209302,0,0.5,0.0,0.0,0.0,0
2014-04-10 12:52:00,0.0170749347505,0,0.5,0.0,0.0,0.0,0
2014-04-10 12:57:00,0.0209741832018,0,0.5,0.0,0.0,0.0,0
2014-04-10 13:02:00,0.0111002798654,0,0.5,0.0,0.0,0.0,0
2014-04-10 13:07:00,0.0215716486903,0,0.5,0.0,0.0,0.0,0
2014-04-10 13:12:00,0.00622621930128,0,0.5,0.0,0.0,0.0,0
2014-04-10 13:17:00,0.0263828181504,0,0.5,0.0,0.0,0.0,0
2014-04-10 13:22:00,0.0111946165215,0,0.5,0.0,0.0,0.0,0
2014-04-10 13:27:00,0.0211628565139,0,0.5,0.0,0.0,0.0,0
2014-04-10 13:32:00,0.0222005597308,0,0.5,0.0,0.0,0.0,0
2014-04-10 13:37:00,0.0215716486903,0,0.5,0.0,0.0,0.0,0
2014-04-10 13:42:00,0.0209741832018,0,0.5,0.0,0.0,0.0,0
2014-04-10 13:47:00,0.0215716486903,0,0.5,0.0,0.0,0.0,0
2014-04-10 13:52:00,0.0110688343134,0,0.5,0.0,0.0,0.0,0
2014-04-10 13:57:00,0.0272947391591,0,0.5,0.0,0.0,0.0,0
2014-04-10 14:02:00,0.000345901072293,0,0.5,0.0,0.0,0.0,0
2014-04-10 14:07:00,0.0110373887614,0,0.5,0.0,0.0,0.0,0
2014-04-10 14:12:00,0.0113518442816,0,0.5,0.0,0.0,0.0,0
2014-04-10 14:17:00,0.0215402031383,0,0.5,0.0,0.0,0.0,0
2014-04-10 14:22:00,0.0110688343134,0,0.5,0.0,0.0,0.0,0
2014-04-10 14:27:00,0.0320430175152,0,0.5,0.0,0.0,0.0,0
2014-04-10 14:32:00,0.0215716486903,0,0.5,0.0,0.0,0.0,0
2014-04-10 14:37:00,0.0216030942423,0,0.5,0.0,0.0,0.0,0
2014-04-10 14:42:00,0.000440237728373,0,0.5,0.0,0.0,0.0,0
2014-04-10 14:47:00,0.0268545014308,0,0.5,0.0,0.0,0.0,0
2014-04-10 14:52:00,0.00679223923776,0,0.5,0.0,0.0,0.0,0
2014-04-10 14:57:00,0.0266658281186,0,0.5,0.0,0.0,0.0,0
2014-04-10 15:02:00,0.00559730826075,0,0.5,0.0,0.0,0.0,0
2014-04-10 15:07:00,0.0111317254174,0,0.5,0.0,0.0,0.0,0
2014-04-10 15:12:00,0.0110688343134,0,0.5,0.0,0.0,0.0,0
2014-04-10 15:17:00,0.0213829753781,0,0.5,0.0,0.0,0.0,0
2014-04-10 15:22:00,0.0110688343134,0,0.5,0.0,0.0,0.0,0
2014-04-10 15:27:00,0.0268230558787,0,0.5,0.0,0.0,0.0,0
2014-04-10 15:32:00,0.0107229332411,0,0.5,0.0,0.0,0.0,0
2014-04-10 15:37:00,0.0267916103267,0,0.5,0.0,0.0,0.0,0
2014-04-10 15:42:00,0.0215402031383,0,0.5,0.0,0.0,0.0,0
2014-04-10 15:47:00,0.0163516870539,0,0.5,0.0,0.0,0.0,0
2014-04-10 15:52:00,0.0110688343134,0,0.5,0.0,0.0,0.0,0
2014-04-10 15:57:00,0.0273576302632,0,0.5,0.0,0.0,0.0,0
2014-04-10 16:02:00,0.0110688343134,0,0.5,0.0,0.0,0.0,0
2014-04-10 16:07:00,0.042482940788,0,0.5,0.0,0.0,0.0,0
2014-04-10 16:12:00,0.0110688343134,0,0.5,0.0,0.0,0.0,0
2014-04-10 16:17:00,0.0163516870539,0,0.5,0.0,0.0,0.0,0
2014-04-10 16:22:00,0.0215716486903,0,0.5,0.0,0.0,0.0,0
2014-04-10 16:27:00,0.0314769975787,0,0.5,0.0,0.0,0.0,0
2014-04-10 16:32:00,0.0169491525424,0,0.5,0.0,0.0,0.0,0
2014-04-10 16:37:00,0.00584887267696,0,0.5,0.0,0.0,0.0,0
2014-04-10 16:42:00,0.0215716486903,0,0.5,0.0,0.0,0.0,0
2014-04-10 16:47:00,0.0111002798654,0,0.5,0.0,0.0,0.0,0
2014-04-10 16:52:00,0.0110373887614,0,0.5,0.0,0.0,0.0,0
2014-04-10 16:57:00,0.0110688343134,0,0.5,0.0,0.0,0.0,0
2014-04-10 17:02:00,0.0163202415018,0,0.5,0.0,0.0,0.0,0
2014-04-10 17:07:00,0.0163202415018,0,0.5,0.0,0.0,0.0,0
2014-04-10 17:12:00,0.0110688343134,0,0.5,0.0,0.0,0.0,0
2014-04-10 17:17:00,0.00525140718845,0,0.5,0.0,0.0,0.0,0
2014-04-10 17:22:00,0.0321687997233,0,0.5,0.0,0.0,0.0,0
2014-04-10 17:27:00,0.0215716486903,0,0.5,0.0,0.0,0.0,0
2014-04-10 17:32:00,0.0215716486903,0,0.5,0.0,0.0,0.0,0
2014-04-10 17:37:00,0.0216030942423,0,0.5,0.0,0.0,0.0,0
2014-04-10 17:42:00,0.0215716486903,0,0.5,0.0,0.0,0.0,0
2014-04-10 17:47:00,0.00657212037357,0,0.5,0.0,0.0,0.0,0
2014-04-10 17:52:00,0.0164145781579,0,0.5,0.0,0.0,0.0,0
2014-04-10 17:57:00,0.0215716486903,0,0.5,0.0,0.0,0.0,0
2014-04-10 18:02:00,0.0109116065533,0,0.5,0.0,0.0,0.0,0
2014-04-10 18:07:00,0.0110688343134,0,0.5,0.0,0.0,0.0,0
2014-04-10 18:12:00,0.0110688343134,0,0.5,0.0,0.0,0.0,0
2014-04-10 18:17:00,0.0111002798654,0,0.5,0.0,0.0,0.0,0
2014-04-10 18:22:00,0.0215716486903,0,0.5,0.0,0.0,0.0,0
2014-04-10 18:27:00,0.0221062230747,0,0.5,0.0,0.0,0.0,0
2014-04-10 18:32:00,0.0163202415018,0,0.5,0.0,0.0,0.0,0
2014-04-10 18:37:00,0.0210056287538,0,0.5,0.0,0.0,0.0,0
2014-04-10 18:42:00,0.0110688343134,0,0.5,0.0,0.0,0.0,0
2014-04-10 18:47:00,0.0111002798654,0,0.5,0.0,0.0,0.0,0
2014-04-10 18:52:00,0.0110688343134,0,0.5,0.0,0.0,0.0,0
2014-04-10 18:57:00,0.0161630137417,0,0.5,0.0,0.0,0.0,0
2014-04-10 19:02:00,0.0163202415018,0,0.5,0.0,0.0,0.0,0
2014-04-10 19:07:00,0.00584887267696,0,0.5,0.0,0.0,0.0,0
2014-04-10 19:12:00,0.0270117291909,0,0.5,0.0,0.0,0.0,0
2014-04-10 19:17:00,0.000628911040533,0,0.5,0.0,0.0,0.0,0
2014-04-10 19:22:00,0.0163202415018,0,0.5,0.0,0.0,0.0,0
2014-04-10 19:27:00,0.0109744976573,0,0.5,0.0,0.0,0.0,0
2014-04-10 19:32:00,0.021225747618,0,0.5,0.0,0.0,0.0,0
2014-04-10 19:37:00,0.0163516870539,0,0.5,0.0,0.0,0.0,0
2014-04-10 19:42:00,0.0268230558787,0,0.5,0.0,0.0,0.0,0
2014-04-10 19:47:00,0.0210056287538,0,0.5,0.0,0.0,0.0,0
2014-04-10 19:52:00,0.0169177069903,0,0.5,0.0,0.0,0.0,0
2014-04-10 19:57:00,0.0215716486903,0,0.5,0.0,0.0,0.0,0
2014-04-10 20:02:00,0.0163202415018,0,0.5,0.0,0.0,0.0,0
2014-04-10 20:07:00,0.0112889531776,0,0.5,0.0,0.0,0.0,0
2014-04-10 20:12:00,0.0166975881262,0,0.5,0.0,0.0,0.0,0
2014-04-10 20:17:00,0.00028300996824,0,0.5,0.0,0.0,0.0,0
2014-04-10 20:22:00,0.0163516870539,0,0.5,0.0,0.0,0.0,0
2014-04-10 20:27:00,0.00584887267696,0,0.5,0.0,0.0,0.0,0
2014-04-10 20:32:00,0.0110688343134,0,0.5,0.0,0.0,0.0,0
2014-04-10 20:37:00,0.0210056287538,0,0.5,0.0,0.0,0.0,0
2014-04-10 20:42:00,0.0268230558787,0,0.5,0.0,0.0,0.0,0
2014-04-10 20:47:00,0.0104084777208,0,0.5,0.0,0.0,0.0,0
2014-04-10 20:52:00,0.0110688343134,0,0.5,0.0,0.0,0.0,0
2014-04-10 20:57:00,0.0268230558787,0,0.5,0.0,0.0,0.0,0
2014-04-10 21:02:00,0.00581742712493,0,0.5,0.0,0.0,0.0,0
2014-04-10 21:07:00,0.0111002798654,0,0.5,0.0,0.0,0.0,0
2014-04-10 21:12:00,0.0268230558787,0,0.5,0.0,0.0,0.0,0
2014-04-10 21:17:00,0.0231753718437,0,0.5,0.0,0.0,0.0,0
2014-04-10 21:22:00,0.0218546586585,0,0.5,0.0,0.0,0.0,0
2014-04-10 21:27:00,0.025974025974,0,0.5,0.0,0.0,0.0,0
2014-04-10 21:32:00,0.0207855098896,0,0.5,0.0,0.0,0.0,0
2014-04-10 21:37:00,0.0163831326059,0,0.5,0.0,0.0,0.0,0
2014-04-10 21:42:00,0.0215716486903,0,0.5,0.0,0.0,0.0,0
2014-04-10 21:47:00,0.000597465488507,0,0.5,0.0,0.0,0.0,0
2014-04-10 21:52:00,0.0215716486903,0,0.5,0.0,0.0,0.0,0
2014-04-10 21:57:00,0.0163202415018,0,0.5,0.0,0.0,0.0,0
2014-04-10 22:02:00,0.0110688343134,0,0.5,0.0,0.0,0.0,0
2014-04-10 22:07:00,0.0163202415018,0,0.5,0.0,0.0,0.0,0
2014-04-10 22:12:00,0.00654067482155,0,0.5,0.0,0.0,0.0,0
2014-04-10 22:17:00,0.0106914876891,0,0.5,0.0,0.0,0.0,0
2014-04-10 22:22:00,0.0163202415018,0,0.5,0.0,0.0,0.0,0
2014-04-10 22:27:00,0.0215716486903,0,0.5,0.0,0.0,0.0,0
2014-04-10 22:32:00,0.0163202415018,0,0.5,0.0,0.0,0.0,0
2014-04-10 22:37:00,0.0217917675545,0,0.5,0.0,0.0,0.0,0
2014-04-10 22:42:00,0.0320744630672,0,0.5,0.0,0.0,0.0,0
2014-04-10 22:47:00,0.0163202415018,0,0.5,0.0,0.0,0.0,0
2014-04-10 22:52:00,0.0110688343134,0,0.5,0.0,0.0,0.0,0
2014-04-10 22:57:00,0.0425458318921,0,0.5,0.0,0.0,0.0,0
2014-04-10 23:02:00,0.0110688343134,0,0.5,0.0,0.0,0.0,0
2014-04-10 23:07:00,0.0268230558787,0,0.5,0.0,0.0,0.0,0
2014-04-10 23:12:00,0.0215716486903,0,0.5,0.0,0.0,0.0,0
2014-04-10 23:17:00,0.0163516870539,0,0.5,0.0,0.0,0.0,0
2014-04-10 23:22:00,0.0215716486903,0,0.5,0.0,0.0,0.0,0
2014-04-10 23:27:00,0.0215716486903,0,0.5,0.0,0.0,0.0,0
2014-04-10 23:32:00,0.00581742712493,0,0.5,0.0,0.0,0.0,0
2014-04-10 23:37:00,0.0215716486903,0,0.5,0.0,0.0,0.0,0
2014-04-10 23:42:00,0.00581742712493,0,0.5,0.0,0.0,0.0,0
2014-04-10 23:47:00,0.0218546586585,0,0.5,0.0,0.0,0.0,0
2014-04-10 23:52:00,0.00581742712493,0,0.5,0.0,0.0,0.0,0
2014-04-10 23:57:00,0.0241816295085,0,0.5,0.0,0.0,0.0,0
2014-04-11 00:02:00,0.00584887267696,0,0.5,0.0,0.0,0.0,0
2014-04-11 00:07:00,0.0268545014308,0,0.5,0.0,0.0,0.0,0
2014-04-11 00:12:00,0.0163202415018,0,0.5,0.0,0.0,0.0,0
2014-04-11 00:17:00,0.0163516870539,0,0.5,0.0,0.0,0.0,0
2014-04-11 00:22:00,0.0215402031383,0,0.5,0.0,0.0,0.0,0
2014-04-11 00:27:00,0.0267916103267,0,0.5,0.0,0.0,0.0,0
2014-04-11 00:32:00,0.00581742712493,0,0.5,0.0,0.0,0.0,0
2014-04-11 00:37:00,0.0111002798654,0,0.5,0.0,0.0,0.0,0
2014-04-11 00:42:00,0.0163202415018,0,0.5,0.0,0.0,0.0,0
2014-04-11 00:47:00,0.0111317254174,0,0.5,0.0,0.0,0.0,0
2014-04-11 00:52:00,0.0163202415018,0,0.5,0.0,0.0,0.0,0
2014-04-11 00:57:00,0.0263199270463,0,0.5,0.0,0.0,0.0,0
2014-04-11 01:02:00,0.00581742712493,0,0.5,0.0,0.0,0.0,0
2014-04-11 01:07:00,0.0267916103267,0,0.5,0.0,0.0,0.0,0
2014-04-11 01:12:00,0.0163202415018,0,0.5,0.0,0.0,0.0,0
2014-04-11 01:17:00,0.0111317254174,0,0.5,0.0,0.0,0.0,0
2014-04-11 01:22:00,0.0110688343134,0,0.5,0.0,0.0,0.0,0
2014-04-11 01:27:00,0.0159428948775,0,0.5,0.0,0.0,0.0,0
2014-04-11 01:32:00,0.0163202415018,0,0.5,0.0,0.0,0.0,0
2014-04-11 01:37:00,0.0154712115971,0,0.5,0.0,0.0,0.0,0
2014-04-11 01:42:00,0.0210370743058,0,0.5,0.0,0.0,0.0,0
2014-04-11 01:47:00,0.0162887959498,0,0.5,0.0,0.0,0.0,0
2014-04-11 01:52:00,0.0268230558787,0,0.5,0.0,0.0,0.0,0
2014-04-11 01:57:00,0.0320744630672,0,0.5,0.0,0.0,0.0,0
2014-04-11 02:02:00,0.0217603220025,0,0.5,0.0,0.0,0.0,0
2014-04-11 02:07:00,0.0163202415018,0,0.5,0.0,0.0,0.0,0
2014-04-11 02:12:00,0.0264771548065,0,0.5,0.0,0.0,0.0,0
2014-04-11 02:17:00,0.0111002798654,0,0.5,0.0,0.0,0.0,0
2014-04-11 02:22:00,0.0215716486903,0,0.5,0.0,0.0,0.0,0
2014-04-11 02:27:00,0.0158171126694,0,0.5,0.0,0.0,0.0,0
2014-04-11 02:32:00,0.0163202415018,0,0.5,0.0,0.0,0.0,0
2014-04-11 02:37:00,0.0270431747429,0,0.5,0.0,0.0,0.0,0
2014-04-11 02:42:00,0.0265714914625,0,0.5,0.0,0.0,0.0,0
2014-04-11 02:47:00,0.0169805980944,0,0.5,0.0,0.0,0.0,0
2014-04-11 02:52:00,0.0268230558787,0,0.5,0.0,0.0,0.0,0
2014-04-11 02:57:00,0.0161001226377,0,0.5,0.0,0.0,0.0,0
2014-04-11 03:02:00,0.0215716486903,0,0.5,0.0,0.0,0.0,0
2014-04-11 03:07:00,0.00584887267696,0,0.5,0.0,0.0,0.0,0
2014-04-11 03:12:00,0.0163202415018,0,0.5,0.0,0.0,0.0,0
2014-04-11 03:17:00,0.000597465488507,0,0.5,0.0,0.0,0.0,0
2014-04-11 03:22:00,0.0163202415018,0,0.5,0.0,0.0,0.0,0
2014-04-11 03:27:00,0.0268230558787,0,0.5,0.0,0.0,0.0,0
2014-04-11 03:32:00,0.0215716486903,0,0.5,0.0,0.0,0.0,0
2014-04-11 03:37:00,0.0268230558787,0,0.5,0.0,0.0,0.0,0
2014-04-11 03:42:00,0.0215716486903,0,0.5,0.0,0.0,0.0,0
2014-04-11 03:47:00,0.0163516870539,0,0.5,0.0,0.0,0.0,0
2014-04-11 03:52:00,0.0215716486903,0,0.5,0.0,0.0,0.0,0
2014-04-11 03:57:00,0.0163202415018,0,0.5,0.0,0.0,0.0,0
2014-04-11 04:02:00,0.0163202415018,0,0.5,0.0,0.0,0.0,0
2014-04-11 04:07:00,0.0111002798654,0,0.5,0.0,0.0,0.0,0
2014-04-11 04:12:00,0.0163202415018,0,0.5,0.0,0.0,0.0,0
2014-04-11 04:17:00,0.0156913304613,0,0.5,0.0,0.0,0.0,0
2014-04-11 04:22:00,0.0163202415018,0,0.5,0.0,0.0,0.0,0
2014-04-11 04:27:00,0.0163202415018,0,0.5,0.0,0.0,0.0,0
2014-04-11 04:32:00,0.0163202415018,0,0.5,0.0,0.0,0.0,0
2014-04-11 04:37:00,0.00584887267696,0,0.5,0.0,0.0,0.0,0
2014-04-11 04:42:00,0.0215716486903,0,0.5,0.0,0.0,0.0,0
2014-04-11 04:47:00,0.0111002798654,0,0.5,0.0,0.0,0.0,0
2014-04-11 04:52:00,0.031885789755,0,0.5,0.0,0.0,0.0,0
2014-04-11 04:57:00,0.0163202415018,0,0.5,0.0,0.0,0.0,0
2014-04-11 05:02:00,0.0110688343134,0,0.5,0.0,0.0,0.0,0
2014-04-11 05:07:00,0.0162573503978,0,0.5,0.0,0.0,0.0,0
2014-04-11 05:12:00,0.0112889531776,0,0.5,0.0,0.0,0.0,0
2014-04-11 05:17:00,0.0120122008742,0,0.5,0.0,0.0,0.0,0
2014-04-11 05:22:00,0.0160686770856,0,0.5,0.0,0.0,0.0,0
2014-04-11 05:27:00,0.0163202415018,0,0.5,0.0,0.0,0.0,0
2014-04-11 05:32:00,0.00581742712493,0,0.5,0.0,0.0,0.0,0
2014-04-11 05:37:00,0.0111002798654,0,0.5,0.0,0.0,0.0,0
2014-04-11 05:42:00,0.0163202415018,0,0.5,0.0,0.0,0.0,0
2014-04-11 05:47:00,0.0111002798654,0,0.5,0.0,0.0,0.0,0
2014-04-11 05:52:00,0.0110688343134,0,0.5,0.0,0.0,0.0,0
2014-04-11 05:57:00,0.0163202415018,0,0.5,0.0,0.0,0.0,0
2014-04-11 06:02:00,0.0159743404295,0,0.5,0.0,0.0,0.0,0
2014-04-11 06:07:00,0.00584887267696,0,0.5,0.0,0.0,0.0,0
2014-04-11 06:12:00,0.0110688343134,0,0.5,0.0,0.0,0.0,0
2014-04-11 06:17:00,0.0161630137417,0,0.5,0.0,0.0,0.0,0
2014-04-11 06:22:00,0.0110688343134,0,0.5,0.0,0.0,0.0,0
2014-04-11 06:27:00,0.0163202415018,0,0.5,0.0,0.0,0.0,0
2014-04-11 06:32:00,0.0223263419389,0,0.5,0.0,0.0,0.0,0
2014-04-11 06:37:00,0.0211628565139,0,0.5,0.0,0.0,0.0,0
2014-04-11 06:42:00,0.0163202415018,0,0.5,0.0,0.0,0.0,0
2014-04-11 06:47:00,0.0215716486903,0,0.5,0.0,0.0,0.0,0
2014-04-11 06:52:00,0.0215716486903,0,0.5,0.0,0.0,0.0,0
2014-04-11 06:57:00,0.0110059432093,0,0.5,0.0,0.0,0.0,0
2014-04-11 07:02:00,0.0110688343134,0,0.5,0.0,0.0,0.0,0
2014-04-11 07:07:00,0.000534574384453,0,0.5,0.0,0.0,0.0,0
2014-04-11 07:12:00,0.0171063803025,0,0.5,0.0,0.0,0.0,0
2014-04-11 07:17:00,0.0159114493255,0,0.5,0.0,0.0,0.0,0
2014-04-11 07:22:00,0.0110688343134,0,0.5,0.0,0.0,0.0,0
2014-04-11 07:27:00,0.0163202415018,0,0.5,0.0,0.0,0.0,0
2014-04-11 07:32:00,0.0110688343134,0,0.5,0.0,0.0,0.0,0
2014-04-11 07:37:00,0.0109430521053,0,0.5,0.0,0.0,0.0,0
2014-04-11 07:42:00,0.0211314109619,0,0.5,0.0,0.0,0.0,0
2014-04-11 07:47:00,0.00650922926952,0,0.5,0.0,0.0,0.0,0
2014-04-11 07:52:00,0.0421684852678,0,0.5,0.0,0.0,0.0,0
2014-04-11 07:57:00,0.0267916103267,0,0.5,0.0,0.0,0.0,0
2014-04-11 08:02:00,0.0163202415018,0,0.5,0.0,0.0,0.0,0
2014-04-11 08:07:00,0.0111002798654,0,0.5,0.0,0.0,0.0,0
2014-04-11 08:12:00,0.0215716486903,0,0.5,0.0,0.0,0.0,0
2014-04-11 08:17:00,0.00584887267696,0,0.5,0.0,0.0,0.0,0
2014-04-11 08:22:00,0.0268230558787,0,0.738804695136,0.0,0.0,0.0,0
2014-04-11 08:27:00,0.0157227760133,0,0.729753842833,0.0,0.0,0.0,0
2014-04-11 08:32:00,0.0169177069903,0,0.737741070907,0.0,0.0,0.0,0
2014-04-11 08:37:00,0.0163516870539,0,0.718897938343,0.0,0.0,0.0,0
2014-04-11 08:42:00,0.0110688343134,0,0.776111522886,0.0,0.0,0.0,0
2014-04-11 08:47:00,0.0163516870539,0,0.79372142233,0.0,0.0,0.0,0
2014-04-11 08:52:00,0.0215716486903,0,0.784968131165,0.0,0.0,0.0,0
2014-04-11 08:57:00,0.0110688343134,0,0.78502117986,0.0,0.0,0.0,0
2014-04-11 09:02:00,0.0166346970221,0,0.793255139927,0.0,0.0,0.0,0
2014-04-11 09:07:00,0.010597151033,0,0.785339312381,0.0,0.0,0.0,0
2014-04-11 09:12:00,0.0163202415018,0,0.802613119999,0.0,0.0,0.0,0
2014-04-11 09:17:00,0.0111002798654,0,0.809941385256,0.0,0.0,0.0,0
2014-04-11 09:22:00,0.0163202415018,0,0.81087622001,0.0,0.0,0.0,0
2014-04-11 09:27:00,0.0215716486903,0,0.802613119999,0.0,0.0,0.0,0
2014-04-11 09:32:00,0.0110688343134,0,0.802613119999,0.0,0.0,0.0,0
2014-04-11 09:37:00,0.0115719631458,0,0.810187669324,0.0,0.0,0.0,0
2014-04-11 09:42:00,0.0210685198579,0,0.810974458673,0.0,0.0,0.0,0
2014-04-11 09:47:00,0.000628911040533,0,0.826844393266,0.0,0.0,0.0,0
2014-04-11 09:52:00,0.0110688343134,0,0.83494771201,0.0,0.0,0.0,0
2014-04-11 09:57:00,0.022389233043,0,0.817484694796,0.0,0.0,0.0,0
2014-04-11 10:02:00,0.0116034086978,0,0.824603929116,0.0,0.0,0.0,0
2014-04-11 10:07:00,0.00534574384453,0,0.833047465139,0.0,0.0,0.0,0
2014-04-11 10:12:00,0.0164145781579,0,0.832911195397,0.0,0.0,0.0,0
2014-04-11 10:17:00,0.0111002798654,0,0.847599086973,0.0,0.0,0.0,0
2014-04-11 10:22:00,0.0215716486903,0,0.832865756218,0.0,0.0,0.0,0
2014-04-11 10:27:00,0.00584887267696,0,0.841004399739,0.0,0.0,0.0,0
2014-04-11 10:32:00,0.0220118864187,0,0.839681045001,0.0,0.0,0.0,0
2014-04-11 10:37:00,0.0105028143769,0,0.825399519912,0.0,0.0,0.0,0
2014-04-11 10:42:00,0.0219175497626,0,0.808805950936,0.0,0.0,0.0,0
2014-04-11 10:47:00,0.00540863494859,0,0.834361042459,0.0,0.0,0.0,0
2014-04-11 10:52:00,0.0113518442816,0,0.83472222927,0.0,0.0,0.0,0
2014-04-11 10:57:00,0.0215716486903,0,0.810384555212,0.0,0.0,0.0,0
2014-04-11 11:02:00,0.00584887267696,0,0.82647225374,0.0,0.0,0.0,0
2014-04-11 11:07:00,0.0261312537342,0,0.803318325146,0.0,0.0,0.0,0
2014-04-11 11:12:00,0.0116034086978,0,0.818874973196,0.0,0.0,0.0,0
2014-04-11 11:17:00,0.0215716486903,0,0.793980198558,0.0,0.0,0.0,0
2014-04-11 11:22:00,0.0163202415018,0,0.803217675092,0.0,0.0,0.0,0
2014-04-11 11:27:00,0.0266972736706,0,0.776274380555,0.0,0.0,0.0,0
2014-04-11 11:32:00,0.00600610043709,0,0.80276436398,0.0,0.0,0.0,0
2014-04-11 11:37:00,0.0214773120342,0,0.776002913689,0.0,0.0,0.0,0
2014-04-11 11:42:00,0.0110688343134,0,0.776491419313,0.0,0.0,0.0,0
2014-04-11 11:47:00,0.0163831326059,0,0.785339312381,0.0,0.0,0.0,0
2014-04-11 11:52:00,0.0111002798654,0,0.776382914908,0.0,0.0,0.0,0
2014-04-11 11:57:00,0.0163516870539,0,0.792892044775,0.0,0.0,0.0,0
2014-04-11 12:02:00,0.0110688343134,0,0.793773192982,0.0,0.0,0.0,0
2014-04-11 12:07:00,0.0215716486903,0,0.793773192982,0.0,0.0,0.0,0
2014-04-11 12:12:00,0.0108172698972,0,0.802713957111,0.0,0.0,0.0,0
2014-04-11 12:17:00,0.0263513725983,0,0.803268004017,0.0,0.0,0.0,0
2014-04-11 12:22:00,0.0110688343134,0,0.795064954441,0.0,0.0,0.0,0
2014-04-11 12:27:00,0.0215716486903,0,0.794910197544,0.0,0.0,0.0,0
2014-04-11 12:32:00,0.00584887267696,0,0.803368638478,0.0,0.0,0.0,0
2014-04-11 12:37:00,0.0267916103267,0,0.78629206672,0.0,0.0,0.0,0
2014-04-11 12:42:00,0.0109116065533,0,0.78660910329,0.0,0.0,0.0,0
2014-04-11 12:47:00,0.0163516870539,0,0.78660910329,0.0,0.0,0.0,0
2014-04-11 12:52:00,0.016508914814,0,0.777358375685,0.0,0.0,0.0,0
2014-04-11 12:57:00,0.0215716486903,0,0.777358375685,0.0,0.0,0.0,0
2014-04-11 13:02:00,0.00610043709317,0,0.785392307854,0.0,0.0,0.0,0
2014-04-11 13:07:00,0.0216030942423,0,0.793306979879,0.0,0.0,0.0,0
2014-04-11 13:12:00,0.0163202415018,0,0.784543468057,0.0,0.0,0.0,0
2014-04-11 13:17:00,0.0215716486903,0,0.784543468057,0.0,0.0,0.0,0
2014-04-11 13:22:00,0.0163202415018,0,0.766440041985,0.0,0.0,0.0,0
2014-04-11 13:27:00,0.0265400459105,0,0.766884622128,0.0,0.0,0.0,0
2014-04-11 13:32:00,0.000628911040533,0,0.784649679418,0.0,0.0,0.0,0
2014-04-11 13:37:00,0.0163516870539,0,0.784649679418,0.0,0.0,0.0,0
2014-04-11 13:42:00,0.0110688343134,0,0.79372142233,0.0,0.0,0.0,0
2014-04-11 13:47:00,0.0111002798654,0,0.810532137149,0.0,0.0,0.0,0
2014-04-11 13:52:00,0.0113518442816,0,0.802209459953,0.0,0.0,0.0,0
2014-04-11 13:57:00,0.0163202415018,0,0.810581315415,0.0,0.0,0.0,0
2014-04-11 14:02:00,0.00556586270872,0,0.82693734867,0.0,0.0,0.0,0
2014-04-11 14:07:00,0.0163516870539,0,0.834541699621,0.0,0.0,0.0,0
2014-04-11 14:12:00,0.0215716486903,0,0.826890874942,0.0,0.0,0.0,0
2014-04-11 14:17:00,0.0111317254174,0,0.848708677071,0.0,0.0,0.0,0
2014-04-11 14:22:00,0.00610043709317,0,0.841180304696,0.0,0.0,0.0,0
2014-04-11 14:27:00,0.0161630137417,0,0.841443922861,0.0,0.0,0.0,0
2014-04-11 14:32:00,0.0111002798654,0,0.841400006439,0.0,0.0,0.0,0
2014-04-11 14:37:00,0.0268230558787,0,0.818444219156,0.0,0.0,0.0,0
2014-04-11 14:42:00,0.0160686770856,0,0.811170841682,0.0,0.0,0.0,0
2014-04-11 14:47:00,0.00584887267696,0,0.827076722161,0.0,0.0,0.0,0
2014-04-11 14:52:00,0.0163202415018,0,0.810728803073,0.0,0.0,0.0,0
2014-04-11 14:57:00,0.0163202415018,0,0.81077794991,0.0,0.0,0.0,0
2014-04-11 15:02:00,0.0110688343134,0,0.82675140607,0.0,0.0,0.0,0
2014-04-11 15:07:00,0.0157542215654,0,0.819829909954,0.0,0.0,0.0,0
2014-04-11 15:12:00,0.0273576302632,0,0.785815997787,0.0,0.0,0.0,0
2014-04-11 15:17:00,0.000597465488507,0,0.811072665898,0.0,0.0,0.0,0
2014-04-11 15:22:00,0.0110688343134,0,0.811121757721,0.0,0.0,0.0,0
2014-04-11 15:27:00,0.0163202415018,0,0.827076722161,0.0,0.0,0.0,0
2014-04-11 15:32:00,0.0163202415018,0,0.82670490055,0.0,0.0,0.0,0
2014-04-11 15:37:00,0.0111002798654,0,0.818827143276,0.0,0.0,0.0,0
2014-04-11 15:42:00,0.0110688343134,0,0.82670490055,0.0,0.0,0.0,0
2014-04-11 15:47:00,0.0123895474985,0,0.832456445136,0.0,0.0,0.0,0
2014-04-11 15:52:00,0.010565705481,0,0.833183663182,0.0,0.0,0.0,0
2014-04-11 15:57:00,0.0110688343134,0,0.839857907025,0.0,0.0,0.0,0
2014-04-11 16:02:00,0.0213200842741,0,0.848197227979,0.0,0.0,0.0,0
2014-04-11 16:07:00,0.00584887267696,0,0.84096040356,0.0,0.0,0.0,0
2014-04-11 16:12:00,0.0268230558787,0,0.817916872086,0.0,0.0,0.0,0
2014-04-11 16:17:00,0.0163202415018,0,0.817916872086,0.0,0.0,0.0,0
2014-04-11 16:22:00,0.0215716486903,0,0.809793520588,0.0,0.0,0.0,0
2014-04-11 16:27:00,0.0110059432093,0,0.809941385256,0.0,0.0,0.0,0
2014-04-11 16:32:00,0.0163516870539,0,0.801552449534,0.0,0.0,0.0,0
2014-04-11 16:37:00,0.00584887267696,0,0.811906157569,0.0,0.0,0.0,0
2014-04-11 16:42:00,0.0215716486903,0,0.79429047576,0.0,0.0,0.0,0
2014-04-11 16:47:00,0.00584887267696,0,0.80276436398,0.0,0.0,0.0,0
2014-04-11 16:52:00,0.0168862614383,0,0.809793520588,0.0,0.0,0.0,0
2014-04-11 16:57:00,0.0211628565139,0,0.784862010977,0.0,0.0,0.0,0
2014-04-11 17:02:00,0.0110688343134,0,0.810482951026,0.0,0.0,0.0,0
2014-04-11 17:07:00,0.0216030942423,0,0.802108467061,0.0,0.0,0.0,0
2014-04-11 17:12:00,0.0110688343134,0,0.818539997643,0.0,0.0,0.0,0
2014-04-11 17:17:00,0.0,0,0.834812446276,0.0,0.0,0.0,0
2014-04-11 17:22:00,0.0163202415018,0,0.834857542824,0.0,0.0,0.0,0
2014-04-11 17:27:00,0.0214458664822,0,0.81151420928,0.0,0.0,0.0,0
2014-04-11 17:32:00,0.0163202415018,0,0.819591472539,0.0,0.0,0.0,0
2014-04-11 17:37:00,0.0163202415018,0,0.803268004017,0.0,0.0,0.0,0
2014-04-11 17:42:00,0.0163202415018,0,0.804172590997,0.0,0.0,0.0,0
2014-04-11 17:47:00,0.00525140718845,0,0.828558920394,0.0,0.0,0.0,0
2014-04-11 17:52:00,0.0110688343134,0,0.828558920394,0.0,0.0,0.0,0
2014-04-11 17:57:00,0.0215716486903,0,0.828605107872,0.0,0.0,0.0,0
2014-04-11 18:02:00,0.0320115719631,0,0.79609489156,0.0,0.0,0.0,0
2014-04-11 18:07:00,0.0268230558787,0,0.749490996091,0.0,0.0,0.0,0
2014-04-11 18:12:00,0.0163202415018,0,0.749490996091,0.0,0.0,0.0,0
2014-04-11 18:17:00,0.0111317254174,0,0.768049406572,0.0,0.0,0.0,0
2014-04-11 18:22:00,0.00584887267696,0,0.786080556666,0.0,0.0,0.0,0