timestamp,value,is_anomaly,anomaly_score,S(t)_reward_low_FP_rate,S(t)_reward_low_FN_rate,S(t)_standard,predicted_anomaly
2014-02-14 14:27:00,0.512512752806,0,0.5,0.0,0.0,0.0,0
2014-02-14 14:32:00,0.292324311348,0,0.5,0.0,0.0,0.0,0
2014-02-14 14:37:00,0.194382764208,0,0.5,0.0,0.0,0.0,0
2014-02-14 14:42:00,0.414151113245,0,0.5,0.0,0.0,0.0,0
2014-02-14 14:47:00,0.358518874152,0,0.5,0.0,0.0,0.0,0
2014-02-14 14:52:00,0.306667466843,0,0.5,0.0,0.0,0.0,0
2014-02-14 14:57:00,0.430354678029,0,0.5,0.0,0.0,0.0,0
2014-02-14 15:02:00,0.171157654684,0,0.5,0.0,0.0,0.0,0
2014-02-14 15:07:00,0.559263037868,0,0.5,0.0,0.0,0.0,0
2014-02-14 15:12:00,0.319090199844,0,0.5,0.0,0.0,0.0,0
2014-02-14 15:17:00,0.253555782272,0,0.5,0.0,0.0,0.0,0
2014-02-14 15:22:00,0.448718718118,0,0.5,0.0,0.0,0.0,0
2014-02-14 15:27:00,0.348196603253,0,0.5,0.0,0.0,0.0,0
2014-02-14 15:32:00,0.269759347056,0,0.5,0.0,0.0,0.0,0
2014-02-14 15:37:00,0.384564604213,0,0.5,0.0,0.0,0.0,0
2014-02-14 15:42:00,0.179199423873,0,0.5,0.0,0.0,0.0,0
2014-02-14 15:47:00,0.493608593891,0,0.5,0.0,0.0,0.0,0
2014-02-14 15:52:00,0.346516233571,0,0.5,0.0,0.0,0.0,0
2014-02-14 15:57:00,0.307087559263,0,0.5,0.0,0.0,0.0,0
2014-02-14 16:02:00,0.46384204525,0,0.5,0.0,0.0,0.0,0
2014-02-14 16:07:00,0.399987997359,0,0.5,0.0,0.0,0.0,0
2014-02-14 16:12:00,0.263397947548,0,0.5,0.0,0.0,0.0,0
2014-02-14 16:17:00,0.422612974854,0,0.5,0.0,0.0,0.0,0
2014-02-14 16:22:00,0.18532077057,0,0.5,0.0,0.0,0.0,0
2014-02-14 16:27:00,0.53471763788,0,0.5,0.0,0.0,0.0,0
2014-02-14 16:32:00,0.331152853628,0,0.5,0.0,0.0,0.0,0
2014-02-14 16:37:00,0.250735161736,0,0.5,0.0,0.0,0.0,0
2014-02-14 16:42:00,0.480345676049,0,0.5,0.0,0.0,0.0,0
2014-02-14 16:47:00,0.344955890296,0,0.5,0.0,0.0,0.0,0
2014-02-14 16:52:00,0.248634699634,0,0.5,0.0,0.0,0.0,0
2014-02-14 16:57:00,0.478665306367,0,0.5,0.0,0.0,0.0,0
2014-02-14 17:02:00,0.331032827222,0,0.5,0.0,0.0,0.0,0
2014-02-14 17:07:00,0.353597791514,0,0.5,0.0,0.0,0.0,0
2014-02-14 17:12:00,0.400768168997,0,0.5,0.0,0.0,0.0,0
2014-02-14 17:17:00,0.163956070335,0,0.5,0.0,0.0,0.0,0
2014-02-14 17:22:00,0.535317769909,0,0.5,0.0,0.0,0.0,0
2014-02-14 17:27:00,0.296645261958,0,0.5,0.0,0.0,0.0,0
2014-02-14 17:32:00,0.242273300126,0,0.5,0.0,0.0,0.0,0
2014-02-14 17:37:00,0.435275760667,0,0.5,0.0,0.0,0.0,0
2014-02-14 17:42:00,0.369801356298,0,0.5,0.0,0.0,0.0,0
2014-02-14 17:47:00,0.320650543119,0,0.5,0.0,0.0,0.0,0
2014-02-14 17:52:00,0.366980735762,0,0.5,0.0,0.0,0.0,0
2014-02-14 17:57:00,0.25289563704,0,0.5,0.0,0.0,0.0,0
2014-02-14 18:02:00,0.545339974794,0,0.5,0.0,0.0,0.0,0
2014-02-14 18:07:00,0.373462161676,0,0.5,0.0,0.0,0.0,0
2014-02-14 18:12:00,0.251395306968,0,0.5,0.0,0.0,0.0,0
2014-02-14 18:17:00,0.47686491028,0,0.5,0.0,0.0,0.0,0
2014-02-14 18:22:00,0.345856088339,0,0.5,0.0,0.0,0.0,0
2014-02-14 18:27:00,0.312008641901,0,0.5,0.0,0.0,0.0,0
2014-02-14 18:32:00,0.393746624257,0,0.5,0.0,0.0,0.0,0
2014-02-14 18:37:00,0.212626777891,0,0.5,0.0,0.0,0.0,0
2014-02-14 18:42:00,0.552241493128,0,0.5,0.0,0.0,0.0,0
2014-02-14 18:47:00,0.296045129929,0,0.5,0.0,0.0,0.0,0
2014-02-14 18:52:00,0.255536217968,0,0.5,0.0,0.0,0.0,0
2014-02-14 18:57:00,0.55290163836,0,0.5,0.0,0.0,0.0,0
2014-02-14 19:02:00,0.322570965612,0,0.5,0.0,0.0,0.0,0
2014-02-14 19:07:00,0.374002280502,0,0.5,0.0,0.0,0.0,0
2014-02-14 19:12:00,0.349336854108,0,0.5,0.0,0.0,0.0,0
2014-02-14 19:17:00,0.160595330973,0,0.5,0.0,0.0,0.0,0
2014-02-14 19:22:00,0.533217307808,0,0.5,0.0,0.0,0.0,0
2014-02-14 19:27:00,0.324011282482,0,0.5,0.0,0.0,0.0,0
2014-02-14 19:32:00,0.274320350477,0,0.5,0.0,0.0,0.0,0
2014-02-14 19:37:00,0.398847746504,0,0.5,0.0,0.0,0.0,0
2014-02-14 19:42:00,0.319090199844,0,0.5,0.0,0.0,0.0,0
2014-02-14 19:47:00,0.324011282482,0,0.5,0.0,0.0,0.0,0
2014-02-14 19:52:00,0.554041889216,0,0.5,0.0,0.0,0.0,0
2014-02-14 19:57:00,0.366260577327,0,0.5,0.0,0.0,0.0,0
2014-02-14 20:02:00,0.541619156214,0,0.5,0.0,0.0,0.0,0
2014-02-14 20:07:00,0.428974374362,0,0.5,0.0,0.0,0.0,0
2014-02-14 20:12:00,0.343695613035,0,0.5,0.0,0.0,0.0,0
2014-02-14 20:17:00,0.464862269699,0,0.5,0.0,0.0,0.0,0
2014-02-14 20:22:00,0.3719018184,0,0.5,0.0,0.0,0.0,0
2014-02-14 20:27:00,0.314829262438,0,0.5,0.0,0.0,0.0,0
2014-02-14 20:32:00,0.430354678029,0,0.5,0.0,0.0,0.0,0
2014-02-14 20:37:00,0.180279661526,0,0.5,0.0,0.0,0.0,0
2014-02-14 20:42:00,0.532137070155,0,0.5,0.0,0.0,0.0,0
2014-02-14 20:47:00,0.316569645322,0,0.5,0.0,0.0,0.0,0
2014-02-14 20:52:00,0.213406949529,0,0.5,0.0,0.0,0.0,0
2014-02-14 20:57:00,0.500810178239,0,0.5,0.0,0.0,0.0,0
2014-02-14 21:02:00,0.364160115225,0,0.5,0.0,0.0,0.0,0
2014-02-14 21:07:00,0.349396867311,0,0.5,0.0,0.0,0.0,0
2014-02-14 21:12:00,0.376102742603,0,0.5,0.0,0.0,0.0,0
2014-02-14 21:17:00,0.169057192582,0,0.5,0.0,0.0,0.0,0
2014-02-14 21:22:00,0.518874152314,0,0.5,0.0,0.0,0.0,0
2014-02-14 21:27:00,0.392306307388,0,0.5,0.0,0.0,0.0,0
2014-02-14 21:32:00,0.24029286443,0,0.5,0.0,0.0,0.0,0
2014-02-14 21:37:00,0.471943827642,0,0.5,0.0,0.0,0.0,0
2014-02-14 21:42:00,0.318009962192,0,0.5,0.0,0.0,0.0,0
2014-02-14 21:47:00,0.252835623837,0,0.5,0.0,0.0,0.0,0
2014-02-14 21:52:00,0.407789713737,0,0.5,0.0,0.0,0.0,0
2014-02-14 21:57:00,0.395847086359,0,0.5,0.0,0.0,0.0,0
2014-02-14 22:02:00,0.277861129448,0,0.5,0.0,0.0,0.0,0
2014-02-14 22:07:00,0.44091700174,0,0.5,0.0,0.0,0.0,0
2014-02-14 22:12:00,0.370401488327,0,0.5,0.0,0.0,0.0,0
2014-02-14 22:17:00,0.283622396927,0,0.5,0.0,0.0,0.0,0
2014-02-14 22:22:00,0.371721778791,0,0.5,0.0,0.0,0.0,0
2014-02-14 22:27:00,0.208845946108,0,0.5,0.0,0.0,0.0,0
2014-02-14 22:32:00,0.567004741043,0,0.5,0.0,0.0,0.0,0
2014-02-14 22:37:00,0.361339494689,0,0.5,0.0,0.0,0.0,0
2014-02-14 22:42:00,0.302106463422,0,0.5,0.0,0.0,0.0,0
2014-02-14 22:47:00,0.443737622277,0,0.5,0.0,0.0,0.0,0
2014-02-14 22:52:00,0.331752985657,0,0.5,0.0,0.0,0.0,0
2014-02-14 22:57:00,0.360139230631,0,0.5,0.0,0.0,0.0,0
2014-02-14 23:02:00,0.478425253556,0,0.5,0.0,0.0,0.0,0
2014-02-14 23:07:00,0.26693872652,0,0.5,0.0,0.0,0.0,0
2014-02-14 23:12:00,0.563463962072,0,0.5,0.0,0.0,0.0,0
2014-02-14 23:17:00,0.35143731621,0,0.5,0.0,0.0,0.0,0
2014-02-14 23:22:00,0.248634699634,0,0.5,0.0,0.0,0.0,0
2014-02-14 23:27:00,0.428254215928,0,0.5,0.0,0.0,0.0,0
2014-02-14 23:32:00,0.344235731861,0,0.5,0.0,0.0,0.0,0
2014-02-14 23:37:00,0.304266938727,0,0.5,0.0,0.0,0.0,0
2014-02-14 23:42:00,0.412410730361,0,0.5,0.0,0.0,0.0,0
2014-02-14 23:47:00,0.182080057613,0,0.5,0.0,0.0,0.0,0
2014-02-14 23:52:00,0.528056172358,0,0.5,0.0,0.0,0.0,0
2014-02-14 23:57:00,0.373282122067,0,0.5,0.0,0.0,0.0,0
2014-02-15 00:02:00,0.256376402809,0,0.5,0.0,0.0,0.0,0
2014-02-15 00:07:00,0.547980555722,0,0.5,0.0,0.0,0.0,0
2014-02-15 00:12:00,0.356418412051,0,0.5,0.0,0.0,0.0,0
2014-02-15 00:17:00,0.340814979295,0,0.5,0.0,0.0,0.0,0
2014-02-15 00:22:00,0.391166056532,0,0.5,0.0,0.0,0.0,0
2014-02-15 00:27:00,0.197743503571,0,0.5,0.0,0.0,0.0,0
2014-02-15 00:32:00,0.522654984097,0,0.5,0.0,0.0,0.0,0
2014-02-15 00:37:00,0.330312668787,0,0.5,0.0,0.0,0.0,0
2014-02-15 00:42:00,0.240832983256,0,0.5,0.0,0.0,0.0,0
2014-02-15 00:47:00,0.428194202725,0,0.5,0.0,0.0,0.0,0
2014-02-15 00:52:00,0.326111744584,0,0.5,0.0,0.0,0.0,0
2014-02-15 00:57:00,0.345856088339,0,0.5,0.0,0.0,0.0,0
2014-02-15 01:02:00,0.359239032587,0,0.5,0.0,0.0,0.0,0
2014-02-15 01:07:00,0.249354858069,0,0.5,0.0,0.0,0.0,0
2014-02-15 01:12:00,0.508431855008,0,0.5,0.0,0.0,0.0,0
2014-02-15 01:17:00,0.29400468103,0,0.5,0.0,0.0,0.0,0
2014-02-15 01:22:00,0.243713616996,0,0.5,0.0,0.0,0.0,0
2014-02-15 01:27:00,0.423333133289,0,0.5,0.0,0.0,0.0,0
2014-02-15 01:32:00,0.326831903019,0,0.5,0.0,0.0,0.0,0
2014-02-15 01:37:00,0.278641301086,0,0.5,0.0,0.0,0.0,0
2014-02-15 01:42:00,0.387625277561,0,0.5,0.0,0.0,0.0,0
2014-02-15 01:47:00,0.16653663806,0,0.5,0.0,0.0,0.0,0
2014-02-15 01:52:00,0.530276660865,0,0.5,0.0,0.0,0.0,0
2014-02-15 01:57:00,0.365540418892,0,0.5,0.0,0.0,0.0,0
2014-02-15 02:02:00,0.250975214547,0,0.5,0.0,0.0,0.0,0
2014-02-15 02:07:00,0.512032647182,0,0.5,0.0,0.0,0.0,0
2014-02-15 02:12:00,0.34525595631,0,0.5,0.0,0.0,0.0,0
2014-02-15 02:17:00,0.341595150933,0,0.5,0.0,0.0,0.0,0
2014-02-15 02:22:00,0.400048010562,0,0.5,0.0,0.0,0.0,0
2014-02-15 02:27:00,0.183100282062,0,0.5,0.0,0.0,0.0,0
2014-02-15 02:32:00,0.536037928344,0,0.5,0.0,0.0,0.0,0
2014-02-15 02:37:00,0.316929724539,0,0.5,0.0,0.0,0.0,0
2014-02-15 02:42:00,0.272880033607,0,0.5,0.0,0.0,0.0,0
2014-02-15 02:47:00,0.432815219348,0,0.5,0.0,0.0,0.0,0
2014-02-15 02:52:00,0.158014763248,0,0.5,0.0,0.0,0.0,0
2014-02-15 02:57:00,0.544439776751,0,0.5,0.0,0.0,0.0,0
2014-02-15 03:02:00,0.364580207646,0,0.5,0.0,0.0,0.0,0
2014-02-15 03:07:00,0.259317049751,0,0.5,0.0,0.0,0.0,0
2014-02-15 03:12:00,0.463782032047,0,0.5,0.0,0.0,0.0,0
2014-02-15 03:17:00,0.33367340815,0,0.5,0.0,0.0,0.0,0
2014-02-15 03:22:00,0.275280561724,0,0.5,0.0,0.0,0.0,0
2014-02-15 03:27:00,0.402088459461,0,0.5,0.0,0.0,0.0,0
2014-02-15 03:32:00,0.181719978395,0,0.5,0.0,0.0,0.0,0
2014-02-15 03:37:00,0.584588609494,0,0.5,0.0,0.0,0.0,0
2014-02-15 03:42:00,0.36343995679,0,0.5,0.0,0.0,0.0,0
2014-02-15 03:47:00,0.212566764688,0,0.5,0.0,0.0,0.0,0
2014-02-15 03:52:00,0.503570785573,0,0.5,0.0,0.0,0.0,0
2014-02-15 03:57:00,0.389005581228,0,0.5,0.0,0.0,0.0,0
2014-02-15 04:02:00,0.313448958771,0,0.5,0.0,0.0,0.0,0
2014-02-15 04:07:00,0.47686491028,0,0.5,0.0,0.0,0.0,0
2014-02-15 04:12:00,0.153153693813,0,0.5,0.0,0.0,0.0,0
2014-02-15 04:17:00,0.478965372382,0,0.5,0.0,0.0,0.0,0
2014-02-15 04:22:00,0.341595150933,0,0.5,0.0,0.0,0.0,0
2014-02-15 04:27:00,0.250855188141,0,0.5,0.0,0.0,0.0,0
2014-02-15 04:32:00,0.447278401248,0,0.5,0.0,0.0,0.0,0
2014-02-15 04:37:00,0.356418412051,0,0.5,0.0,0.0,0.0,0
2014-02-15 04:42:00,0.306907519654,0,0.5,0.0,0.0,0.0,0
2014-02-15 04:47:00,0.380063613995,0,0.5,0.0,0.0,0.0,0
2014-02-15 04:52:00,0.163415951509,0,0.5,0.0,0.0,0.0,0
2014-02-15 04:57:00,0.573786232971,0,0.5,0.0,0.0,0.0,0
2014-02-15 05:02:00,0.254515993519,0,0.5,0.0,0.0,0.0,0
2014-02-15 05:07:00,0.288063373942,0,0.5,0.0,0.0,0.0,0
2014-02-15 05:12:00,0.430894796855,0,0.5,0.0,0.0,0.0,0
2014-02-15 05:17:00,0.32149072796,0,0.5,0.0,0.0,0.0,0
2014-02-15 05:22:00,0.299705935306,0,0.5,0.0,0.0,0.0,0
2014-02-15 05:27:00,0.357798715717,0,0.5,0.0,0.0,0.0,0
2014-02-15 05:32:00,0.209866170558,0,0.5,0.0,0.0,0.0,0
2014-02-15 05:37:00,0.528176198764,0,0.5,0.0,0.0,0.0,0
2014-02-15 05:42:00,0.303546780292,0,0.5,0.0,0.0,0.0,0
2014-02-15 05:47:00,0.22396927324,0,0.5,0.0,0.0,0.0,0
2014-02-15 05:52:00,0.445838084379,0,0.5,0.0,0.0,0.0,0
2014-02-15 05:57:00,0.386004921083,0,0.5,0.0,0.0,0.0,0
2014-02-15 06:02:00,0.300666146552,0,0.5,0.0,0.0,0.0,0
2014-02-15 06:07:00,0.437736301986,0,0.5,0.0,0.0,0.0,0
2014-02-15 06:12:00,0.178119186221,0,0.5,0.0,0.0,0.0,0
2014-02-15 06:17:00,0.507111564544,0,0.5,0.0,0.0,0.0,0
2014-02-15 06:22:00,0.307087559263,0,0.5,0.0,0.0,0.0,0
2014-02-15 06:27:00,0.265558422853,0,0.5,0.0,0.0,0.0,0
2014-02-15 06:32:00,0.481785992918,0,0.5,0.0,0.0,0.0,0
2014-02-15 06:37:00,0.289503690812,0,0.5,0.0,0.0,0.0,0
2014-02-15 06:42:00,0.284042489348,0,0.5,0.0,0.0,0.0,0
2014-02-15 06:47:00,0.404188921563,0,0.5,0.0,0.0,0.0,0
2014-02-15 06:52:00,0.18946168157,0,0.5,0.0,0.0,0.0,0
2014-02-15 06:57:00,0.574746444218,0,0.5,0.0,0.0,0.0,0
2014-02-15 07:02:00,0.343695613035,0,0.5,0.0,0.0,0.0,0
2014-02-15 07:07:00,0.262737802317,0,0.5,0.0,0.0,0.0,0
2014-02-15 07:12:00,0.449318850147,0,0.5,0.0,0.0,0.0,0
2014-02-15 07:17:00,0.264838264418,0,0.5,0.0,0.0,0.0,0
2014-02-15 07:22:00,0.211306487427,0,0.5,0.0,0.0,0.0,0
2014-02-15 07:27:00,0.438096381204,0,0.5,0.0,0.0,0.0,0
2014-02-15 07:32:00,0.321850807178,0,0.5,0.0,0.0,0.0,0
2014-02-15 07:37:00,0.285962911841,0,0.5,0.0,0.0,0.0,0
2014-02-15 07:42:00,0.448298625698,0,0.5,0.0,0.0,0.0,0
2014-02-15 07:47:00,0.183100282062,0,0.5,0.0,0.0,0.0,0
2014-02-15 07:52:00,0.51137250195,0,0.5,0.0,0.0,0.0,0
2014-02-15 07:57:00,0.413971073636,0,0.5,0.0,0.0,0.0,0
2014-02-15 08:02:00,0.214127107964,0,0.5,0.0,0.0,0.0,0
2014-02-15 08:07:00,0.56838504471,0,0.5,0.0,0.0,0.0,0
2014-02-15 08:12:00,0.353597791514,0,0.5,0.0,0.0,0.0,0
2014-02-15 08:17:00,0.197203384745,0,0.5,0.0,0.0,0.0,0
2014-02-15 08:22:00,0.408089779752,0,0.5,0.0,0.0,0.0,0
2014-02-15 08:27:00,0.213406949529,0,0.5,0.0,0.0,0.0,0
2014-02-15 08:32:00,0.527396027126,0,0.5,0.0,0.0,0.0,0
2014-02-15 08:37:00,0.352157474644,0,0.5,0.0,0.0,0.0,0
2014-02-15 08:42:00,0.225349576907,0,0.5,0.0,0.0,0.0,0
2014-02-15 08:47:00,0.460241253076,0,0.5,0.0,0.0,0.0,0
2014-02-15 08:52:00,0.32893236512,0,0.5,0.0,0.0,0.0,0
2014-02-15 08:57:00,0.32191082038,0,0.5,0.0,0.0,0.0,0
2014-02-15 09:02:00,0.417091760187,0,0.5,0.0,0.0,0.0,0
2014-02-15 09:07:00,0.402208485867,0,0.5,0.0,0.0,0.0,0
2014-02-15 09:12:00,0.297245393987,0,0.5,0.0,0.0,0.0,0
2014-02-15 09:17:00,0.323291124047,0,0.5,0.0,0.0,0.0,0
2014-02-15 09:22:00,0.183820440497,0,0.5,0.0,0.0,0.0,0
2014-02-15 09:27:00,0.457840724959,0,0.5,0.0,0.0,0.0,0
2014-02-15 09:32:00,0.318370041409,0,0.5,0.0,0.0,0.0,0
2014-02-15 09:37:00,0.23945267959,0,0.5,0.0,0.0,0.0,0
2014-02-15 09:42:00,0.39938786533,0,0.5,0.0,0.0,0.0,0
2014-02-15 09:47:00,0.357798715717,0,0.5,0.0,0.0,0.0,0
2014-02-15 09:52:00,0.281041829202,0,0.5,0.0,0.0,0.0,0
2014-02-15 09:57:00,0.454059893176,0,0.5,0.0,0.0,0.0,0
2014-02-15 10:02:00,0.18099981996,0,0.5,0.0,0.0,0.0,0
2014-02-15 10:07:00,0.553621796795,0,0.5,0.0,0.0,0.0,0
2014-02-15 10:12:00,0.316029526496,0,0.5,0.0,0.0,0.0,0
2014-02-15 10:17:00,0.209866170558,0,0.5,0.0,0.0,0.0,0
2014-02-15 10:22:00,0.416971733781,0,0.5,0.0,0.0,0.0,0
2014-02-15 10:27:00,0.323171097641,0,0.5,0.0,0.0,0.0,0
2014-02-15 10:32:00,0.308407849727,0,0.5,0.0,0.0,0.0,0
2014-02-15 10:37:00,0.399147812519,0,0.5,0.0,0.0,0.0,0
2014-02-15 10:42:00,0.210166236572,0,0.5,0.0,0.0,0.0,0
2014-02-15 10:47:00,0.509272039849,0,0.5,0.0,0.0,0.0,0
2014-02-15 10:52:00,0.383844445778,0,0.5,0.0,0.0,0.0,0
2014-02-15 10:57:00,0.250735161736,0,0.5,0.0,0.0,0.0,0
2014-02-15 11:02:00,0.464142111264,0,0.5,0.0,0.0,0.0,0
2014-02-15 11:07:00,0.381323891256,0,0.5,0.0,0.0,0.0,0
2014-02-15 11:12:00,0.252175478605,0,0.5,0.0,0.0,0.0,0
2014-02-15 11:17:00,0.379643521575,0,0.5,0.0,0.0,0.0,0
2014-02-15 11:22:00,0.152853627798,0,0.5,0.0,0.0,0.0,0
2014-02-15 11:27:00,0.500810178239,0,0.5,0.0,0.0,0.0,0
2014-02-15 11:32:00,0.286683070275,0,0.5,0.0,0.0,0.0,0
2014-02-15 11:37:00,0.223249114805,0,0.5,0.0,0.0,0.0,0
2014-02-15 11:42:00,0.435275760667,0,0.5,0.0,0.0,0.0,0
2014-02-15 11:47:00,0.339074596411,0,0.5,0.0,0.0,0.0,0
2014-02-15 11:52:00,0.312008641901,0,0.5,0.0,0.0,0.0,0
2014-02-15 11:57:00,0.4400768169,0,0.5,0.0,0.0,0.0,0
2014-02-15 12:02:00,0.166236572046,0,0.5,0.0,0.0,0.0,0
2014-02-15 12:07:00,0.552241493128,0,0.5,0.0,0.0,0.0,0
2014-02-15 12:12:00,0.319570305467,0,0.5,0.0,0.0,0.0,0
2014-02-15 12:17:00,0.218568084979,0,0.5,0.0,0.0,0.0,0
2014-02-15 12:22:00,0.470623537178,0,0.5,0.0,0.0,0.0,0
2014-02-15 12:27:00,0.368361039429,0,0.5,0.0,0.0,0.0,0
2014-02-15 12:32:00,0.292324311348,0,0.5,0.0,0.0,0.0,0
2014-02-15 12:37:00,0.395847086359,0,0.5,0.0,0.0,0.0,0
2014-02-15 12:42:00,0.202844625818,0,0.5,0.0,0.0,0.0,0
2014-02-15 12:47:00,0.539518694113,0,0.5,0.0,0.0,0.0,0
2014-02-15 12:52:00,0.319090199844,0,0.5,0.0,0.0,0.0,0
2014-02-15 12:57:00,0.278221208666,0,0.5,0.0,0.0,0.0,0
2014-02-15 13:02:00,0.469783352338,0,0.5,0.0,0.0,0.0,0
2014-02-15 13:07:00,0.389485686851,0,0.5,0.0,0.0,0.0,0
2014-02-15 13:12:00,0.26693872652,0,0.5,0.0,0.0,0.0,0
2014-02-15 13:17:00,0.41343095481,0,0.5,0.0,0.0,0.0,0
2014-02-15 13:22:00,0.173258116786,0,0.5,0.0,0.0,0.0,0
2014-02-15 13:27:00,0.51137250195,0,0.5,0.0,0.0,0.0,0
2014-02-15 13:32:00,0.341595150933,0,0.5,0.0,0.0,0.0,0
2014-02-15 13:37:00,0.218328032167,0,0.5,0.0,0.0,0.0,0
2014-02-15 13:42:00,0.417811918622,0,0.5,0.0,0.0,0.0,0
2014-02-15 13:47:00,0.335713857049,0,0.5,0.0,0.0,0.0,0
2014-02-15 13:52:00,0.316929724539,0,0.5,0.0,0.0,0.0,0
2014-02-15 13:57:00,0.41343095481,0,0.5,0.0,0.0,0.0,0
2014-02-15 14:02:00,0.183820440497,0,0.5,0.0,0.0,0.0,0
2014-02-15 14:07:00,0.61177459041,0,0.5,0.0,0.0,0.0,0
2014-02-15 14:12:00,0.276960931405,0,0.5,0.0,0.0,0.0,0
2014-02-15 14:17:00,0.248634699634,0,0.5,0.0,0.0,0.0,0
2014-02-15 14:22:00,0.405149132809,0,0.5,0.0,0.0,0.0,0
2014-02-15 14:27:00,0.302166476625,0,0.5,0.0,0.0,0.0,0
2014-02-15 14:32:00,0.313088879554,0,0.5,0.0,0.0,0.0,0
2014-02-15 14:37:00,0.376102742603,0,0.5,0.0,0.0,0.0,0
2014-02-15 14:42:00,0.159155014103,0,0.5,0.0,0.0,0.0,0
2014-02-15 14:47:00,0.512452739603,0,0.5,0.0,0.0,0.0,0
2014-02-15 14:52:00,0.380063613995,0,0.5,0.0,0.0,0.0,0
2014-02-15 14:57:00,0.274680429695,0,0.5,0.0,0.0,0.0,0
2014-02-15 15:02:00,0.486947128368,0,0.5,0.0,0.0,0.0,0
2014-02-15 15:07:00,0.401188261418,0,0.5,0.0,0.0,0.0,0
2014-02-15 15:12:00,0.300246054132,0,0.5,0.0,0.0,0.0,0
2014-02-15 15:17:00,0.427534057493,0,0.5,0.0,0.0,0.0,0
2014-02-15 15:22:00,0.176798895757,0,0.5,0.0,0.0,0.0,0
2014-02-15 15:27:00,0.504470983616,0,0.5,0.0,0.0,0.0,0
2014-02-15 15:32:00,0.376102742603,0,0.5,0.0,0.0,0.0,0
2014-02-15 15:37:00,0.210766368601,0,0.5,0.0,0.0,0.0,0
2014-02-15 15:42:00,0.527576066735,0,0.5,0.0,0.0,0.0,0
2014-02-15 15:47:00,0.302166476625,0,0.5,0.0,0.0,0.0,0
2014-02-15 15:52:00,0.298625697653,0,0.5,0.0,0.0,0.0,0
2014-02-15 15:57:00,0.450099021785,0,0.5,0.0,0.0,0.0,0
2014-02-15 16:02:00,0.169057192582,0,0.5,0.0,0.0,0.0,0
2014-02-15 16:07:00,0.559263037868,0,0.5,0.0,0.0,0.0,0
2014-02-15 16:12:00,0.307807717698,0,0.5,0.0,0.0,0.0,0
2014-02-15 16:17:00,0.224689431675,0,0.5,0.0,0.0,0.0,0
2014-02-15 16:22:00,0.441997239393,0,0.5,0.0,0.0,0.0,0
2014-02-15 16:27:00,0.343035467803,0,0.5,0.0,0.0,0.0,0
2014-02-15 16:32:00,0.289503690812,0,0.5,0.0,0.0,0.0,0
2014-02-15 16:37:00,0.324671427714,0,0.5,0.0,0.0,0.0,0
2014-02-15 16:42:00,0.335833883454,0,0.5,0.0,0.0,0.0,0
2014-02-15 16:47:00,0.293704615015,0,0.5,0.0,0.0,0.0,0
2014-02-15 16:52:00,0.372621976835,0,0.5,0.0,0.0,0.0,0
2014-02-15 16:57:00,0.249834963692,0,0.5,0.0,0.0,0.0,0
2014-02-15 17:02:00,0.564724239333,0,0.5,0.0,0.0,0.0,0
2014-02-15 17:07:00,0.375742663386,0,0.5,0.0,0.0,0.0,0
2014-02-15 17:12:00,0.251935425794,0,0.5,0.0,0.0,0.0,0
2014-02-15 17:17:00,0.430354678029,0,0.5,0.0,0.0,0.0,0
2014-02-15 17:22:00,0.346216167557,0,0.5,0.0,0.0,0.0,0
2014-02-15 17:27:00,0.257756706475,0,0.5,0.0,0.0,0.0,0
2014-02-15 17:32:00,0.39938786533,0,0.5,0.0,0.0,0.0,0
2014-02-15 17:37:00,0.143671607754,0,0.5,0.0,0.0,0.0,0
2014-02-15 17:42:00,0.529676528836,0,0.5,0.0,0.0,0.0,0
2014-02-15 17:47:00,0.344895877093,0,0.5,0.0,0.0,0.0,0
2014-02-15 17:52:00,0.221628758327,0,0.5,0.0,0.0,0.0,0
2014-02-15 17:57:00,0.528236211967,0,0.5,0.0,0.0,0.0,0
2014-02-15 18:02:00,0.321190661946,0,0.5,0.0,0.0,0.0,0
2014-02-15 18:07:00,0.340874992498,0,0.5,0.0,0.0,0.0,0
2014-02-15 18:12:00,0.343695613035,0,0.5,0.0,0.0,0.0,0
2014-02-15 18:17:00,0.164076096741,0,0.5,0.0,0.0,0.0,0
2014-02-15 18:22:00,0.528656304387,0,0.5,0.0,0.0,0.0,0
2014-02-15 18:27:00,0.317889935786,0,0.5,0.0,0.0,0.0,0
2014-02-15 18:32:00,0.258416851707,0,0.5,0.0,0.0,0.0,0
2014-02-15 18:37:00,0.421172657985,0,0.5,0.0,0.0,0.0,0
2014-02-15 18:42:00,0.171817799916,0,0.5,0.0,0.0,0.0,0
2014-02-15 18:47:00,0.552241493128,0,0.5,0.0,0.0,0.0,0
2014-02-15 18:52:00,0.340874992498,0,0.5,0.0,0.0,0.0,0
2014-02-15 18:57:00,0.262377723099,0,0.5,0.0,0.0,0.0,0
2014-02-15 19:02:00,0.4690031807,0,0.5,0.0,0.0,0.0,0
2014-02-15 19:07:00,0.403588789534,0,0.5,0.0,0.0,0.0,0
2014-02-15 19:12:00,0.303546780292,0,0.5,0.0,0.0,0.0,0
2014-02-15 19:17:00,0.379223429154,0,0.5,0.0,0.0,0.0,0
2014-02-15 19:22:00,0.190061813599,0,0.5,0.0,0.0,0.0,0
2014-02-15 19:27:00,0.546540238853,0,0.5,0.0,0.0,0.0,0
2014-02-15 19:32:00,0.261297485447,0,0.5,0.0,0.0,0.0,0
2014-02-15 19:37:00,0.190241853208,0,0.5,0.0,0.0,0.0,0
2014-02-15 19:42:00,0.407129568505,0,0.5,0.0,0.0,0.0,0
2014-02-15 19:47:00,0.35143731621,0,0.5,0.0,0.0,0.0,0
2014-02-15 19:52:00,0.263397947548,0,0.5,0.0,0.0,0.0,0
2014-02-15 19:57:00,0.471943827642,0,0.5,0.0,0.0,0.0,0
2014-02-15 20:02:00,0.193902658585,0,0.5,0.0,0.0,0.0,0
2014-02-15 20:07:00,0.585068715117,0,0.5,0.0,0.0,0.0,0
2014-02-15 20:12:00,0.331032827222,0,0.5,0.0,0.0,0.0,0
2014-02-15 20:17:00,0.226789893777,0,0.5,0.0,0.0,0.0,0
2014-02-15 20:22:00,0.486707075557,0,0.5,0.0,0.0,0.0,0
2014-02-15 20:27:00,0.355218147993,0,0.5,0.0,0.0,0.0,0
2014-02-15 20:32:00,0.328272219888,0,0.5,0.0,0.0,0.0,0
2014-02-15 20:37:00,0.405689251635,0,0.5,0.0,0.0,0.0,0
2014-02-15 20:42:00,0.176618856148,0,0.5,0.0,0.0,0.0,0
2014-02-15 20:47:00,0.56280381684,0,0.5,0.0,0.0,0.0,0
2014-02-15 20:52:00,0.318850147032,0,0.5,0.0,0.0,0.0,0
2014-02-15 20:57:00,0.310148232611,0,0.5,0.0,0.0,0.0,0
2014-02-15 21:02:00,0.449738942567,0,0.5,0.0,0.0,0.0,0
2014-02-15 21:07:00,0.425433595391,0,0.5,0.0,0.0,0.0,0
2014-02-15 21:12:00,0.297245393987,0,0.5,0.0,0.0,0.0,0
2014-02-15 21:17:00,0.369081197864,0,0.5,0.0,0.0,0.0,0
2014-02-15 21:22:00,0.192282302106,0,0.5,0.0,0.0,0.0,0
2014-02-15 21:27:00,0.51983436356,0,0.5,0.0,0.0,0.0,0
2014-02-15 21:32:00,0.314829262438,0,0.5,0.0,0.0,0.0,0
2014-02-15 21:37:00,0.239992798416,0,0.5,0.0,0.0,0.0,0
2014-02-15 21:42:00,0.403588789534,0,0.5,0.0,0.0,0.0,0
2014-02-15 21:47:00,0.35887895337,0,0.5,0.0,0.0,0.0,0
2014-02-15 21:52:00,0.285842885435,0,0.5,0.0,0.0,0.0,0
2014-02-15 21:57:00,0.441637160175,0,0.5,0.0,0.0,0.0,0
2014-02-15 22:02:00,0.171817799916,0,0.5,0.0,0.0,0.0,0
2014-02-15 22:07:00,0.598811738582,0,0.5,0.0,0.0,0.0,0
2014-02-15 22:12:00,0.324671427714,0,0.5,0.0,0.0,0.0,0
2014-02-15 22:17:00,0.211666566645,0,0.5,0.0,0.0,0.0,0
2014-02-15 22:22:00,0.423993278521,0,0.5,0.0,0.0,0.0,0
2014-02-15 22:27:00,0.347416431615,0,0.5,0.0,0.0,0.0,0
2014-02-15 22:32:00,0.309188021365,0,0.5,0.0,0.0,0.0,0
2014-02-15 22:37:00,0.336253975875,0,0.5,0.0,0.0,0.0,0
2014-02-15 22:42:00,0.16197563464,0,0.5,0.0,0.0,0.0,0
2014-02-15 22:47:00,0.504290944008,0,0.742316398132,0.0,0.0,0.0,0
2014-02-15 22:52:00,0.30144631819,0,0.538999917943,0.0,0.0,0.0,0
2014-02-15 22:57:00,0.343035467803,0,0.916025583418,0.0,0.0,0.0,0
2014-02-15 23:02:00,0.421172657985,0,0.794367393868,0.0,0.0,0.0,0
2014-02-15 23:07:00,0.418832143071,0,0.645951581702,0.0,0.0,0.0,0
2014-02-15 23:12:00,0.315549420873,0,0.599361044491,0.0,0.0,0.0,0
2014-02-15 23:17:00,0.365300366081,0,0.559002097618,0.0,0.0,0.0,0
2014-02-15 23:22:00,0.183580387685,0,0.808843546719,0.0,0.0,0.0,0
2014-02-15 23:27:00,0.556082338114,0,0.653781186529,0.0,0.0,0.0,0
2014-02-15 23:32:00,0.302646582248,0,0.886422715267,0.0,0.0,0.0,0
2014-02-15 23:37:00,0.270419492288,0,0.556676942119,0.0,0.0,0.0,0
2014-02-15 23:42:00,0.396327191982,0,0.657353453613,0.0,0.0,0.0,0
2014-02-15 23:47:00,0.360799375863,0,0.699778134056,0.0,0.0,0.0,0
2014-02-15 23:52:00,0.299345856088,0,0.571271252969,0.0,0.0,0.0,0
2014-02-15 23:57:00,0.431494928884,0,0.542408074769,0.0,0.0,0.0,0
2014-02-16 00:02:00,0.188981575947,0,0.798773711558,0.0,0.0,0.0,0
2014-02-16 00:07:00,0.539038588489,0,0.565858030845,0.0,0.0,0.0,0
2014-02-16 00:12:00,0.366980735762,0,0.889657972894,0.0,0.0,0.0,0
2014-02-16 00:17:00,0.247014343155,0,0.712161648695,0.0,0.0,0.0,0
2014-02-16 00:22:00,0.451059233031,0,0.616827148398,0.0,0.0,0.0,0
2014-02-16 00:27:00,0.176798895757,0,0.596138947982,0.0,0.0,0.0,0
2014-02-16 00:32:00,0.518454059893,0,0.677866414087,0.0,0.0,0.0,0
2014-02-16 00:37:00,0.358518874152,0,0.673130590964,0.0,0.0,0.0,0
2014-02-16 00:42:00,0.200744163716,0,0.548038978758,0.0,0.0,0.0,0
2014-02-16 00:47:00,0.529676528836,0,0.67225512316,0.0,0.0,0.0,0
2014-02-16 00:52:00,0.306907519654,0,0.870128991508,0.0,0.0,0.0,0
2014-02-16 00:57:00,0.32893236512,0,0.534290393897,0.0,0.0,0.0,0
2014-02-16 01:02:00,0.421172657985,0,0.58971846605,0.0,0.0,0.0,0
2014-02-16 01:07:00,0.49936986137,0,0.953890809153,0.0,0.0,0.0,0
2014-02-16 01:12:00,0.417451839405,0,0.931858405209,0.0,0.0,0.0,0
2014-02-16 01:17:00,0.37892336314,0,0.99605514075,0.0,0.0,0.0,0
2014-02-16 01:22:00,0.190361879614,0,0.777117365058,0.0,0.0,0.0,0
2014-02-16 01:27:00,0.554041889216,0,0.970711674463,0.0,0.0,0.0,0
2014-02-16 01:32:00,0.439656724479,0,0.999463654213,0.0,0.0,0.0,0
2014-02-16 01:37:00,0.262617775911,0,0.958082361155,0.0,0.0,0.0,0
2014-02-16 01:42:00,0.434555602232,0,0.993165330402,0.0,0.0,0.0,0
2014-02-16 01:47:00,0.332473144092,0,0.993545686462,0.0,0.0,0.0,0
2014-02-16 01:52:00,0.369081197864,0,0.98557489182,0.0,0.0,0.0,0
2014-02-16 01:57:00,0.38966572646,0,0.93968611085,0.0,0.0,0.0,0
2014-02-16 02:02:00,0.219048190602,0,0.657867093878,0.0,0.0,0.0,0
2014-02-16 02:07:00,0.508371841805,0,0.875755510624,0.0,0.0,0.0,0
2014-02-16 02:12:00,0.336374002281,0,0.977089405221,0.0,0.0,0.0,0
2014-02-16 02:17:00,0.261297485447,0,0.620525012978,0.0,0.0,0.0,0
2014-02-16 02:22:00,0.354497989558,0,0.573310556073,0.0,0.0,0.0,0
2014-02-16 02:27:00,0.112704795055,0,0.853219146777,0.0,0.0,0.0,0
2014-02-16 02:32:00,0.540959010982,0,0.668586710549,0.0,0.0,0.0,0
2014-02-16 02:37:00,0.290163836044,0,0.751839330944,0.0,0.0,0.0,0
2014-02-16 02:42:00,0.212686791094,0,0.94331677601,0.0,0.0,0.0,0
2014-02-16 02:47:00,0.488807537658,0,0.843953593479,0.0,0.0,0.0,0
2014-02-16 02:52:00,0.340394886875,0,0.621810098021,0.0,0.0,0.0,0
2014-02-16 02:57:00,0.341595150933,0,0.898514598332,0.0,0.0,0.0,0
2014-02-16 03:02:00,0.473324131309,0,0.685254576813,0.0,0.0,0.0,0
2014-02-16 03:07:00,0.400768168997,0,0.626576066887,0.0,0.0,0.0,0
2014-02-16 03:12:00,0.280321670768,0,0.541995709024,0.0,0.0,0.0,0
2014-02-16 03:17:00,0.381864010082,0,0.926267452176,0.0,0.0,0.0,0
2014-02-16 03:22:00,0.211306487427,0,0.675346250265,0.0,0.0,0.0,0
2014-02-16 03:27:00,0.643761627558,0,0.943720226329,0.0,0.0,0.0,0
2014-02-16 03:32:00,0.316269579307,0,0.985549496762,0.0,0.0,0.0,0
2014-02-16 03:37:00,0.259197023345,0,0.804875130924,0.0,0.0,0.0,0
2014-02-16 03:42:00,0.467682890236,0,0.944539734922,0.0,0.0,0.0,0
2014-02-16 03:47:00,0.381503930865,0,0.965960600415,0.0,0.0,0.0,0
2014-02-16 03:52:00,0.29730540719,0,0.790521066669,0.0,0.0,0.0,0
2014-02-16 03:57:00,0.447278401248,0,0.859206270163,0.0,0.0,0.0,0
2014-02-16 04:02:00,0.177879133409,0,0.6862689854,0.0,0.0,0.0,0
2014-02-16 04:07:00,0.583508371842,0,0.950478154436,0.0,0.0,0.0,0
2014-02-16 04:12:00,0.348616695673,0,0.992702508954,0.0,0.0,0.0,0
2014-02-16 04:17:00,0.195823081078,0,0.557219428,0.0,0.0,0.0,0
2014-02-16 04:22:00,0.5413190902,0,0.876039381514,0.0,0.0,0.0,0
2014-02-16 04:27:00,0.341715177339,0,0.948643044306,0.0,0.0,0.0,0
2014-02-16 04:32:00,0.230750765168,0,0.604069672967,0.0,0.0,0.0,0
2014-02-16 04:37:00,0.44091700174,0,0.728048011196,0.0,0.0,0.0,0
2014-02-16 04:42:00,0.340874992498,0,0.804683939043,0.0,0.0,0.0,0
2014-02-16 04:47:00,0.325391586149,0,0.561491176095,0.0,0.0,0.0,0
2014-02-16 04:52:00,0.36343995679,0,0.889918941808,0.0,0.0,0.0,0
2014-02-16 04:57:00,0.23945267959,0,0.776470833176,0.0,0.0,0.0,0
2014-02-16 05:02:00,0.547980555722,0,0.651994367147,0.0,0.0,0.0,0
2014-02-16 05:07:00,0.386004921083,0,0.931721596306,0.0,0.0,0.0,0
2014-02-16 05:12:00,0.190541919222,0,0.704192102533,0.0,0.0,0.0,0
2014-02-16 05:17:00,0.436716077537,0,0.50478607801,0.0,0.0,0.0,0
2014-02-16 05:22:00,0.35143731621,0,0.760771982112,0.0,0.0,0.0,0
2014-02-16 05:27:00,0.324011282482,0,0.513492071752,0.0,0.0,0.0,0
2014-02-16 05:32:00,0.374782452139,0,0.590795877526,0.0,0.0,0.0,0
2014-02-16 05:37:00,0.17169777351,0,0.744656199224,0.0,0.0,0.0,0
2014-02-16 05:42:00,0.536698073576,0,0.634030883288,0.0,0.0,0.0,0
2014-02-16 05:47:00,0.298625697653,0,0.753071532674,0.0,0.0,0.0,0
2014-02-16 05:52:00,0.246174158315,0,0.855042821141,0.0,0.0,0.0,0
2014-02-16 05:57:00,0.512752805617,0,0.627985746162,0.0,0.0,0.0,0
2014-02-16 06:02:00,0.339374662426,0,0.702904028508,0.0,0.0,0.0,0
2014-02-16 06:07:00,0.334213526976,0,0.523537161638,0.0,0.0,0.0,0
2014-02-16 06:12:00,0.375382584169,0,0.531569674407,0.0,0.0,0.0,0
2014-02-16 06:17:00,0.208485866891,0,0.721658834874,0.0,0.0,0.0,0
2014-02-16 06:22:00,0.546300186041,0,0.656338685531,0.0,0.0,0.0,0
2014-02-16 06:27:00,0.30660745364,0,0.881278067436,0.0,0.0,0.0,0
2014-02-16 06:32:00,0.25577627078,0,0.670219140003,0.0,0.0,0.0,0
2014-02-16 06:37:00,0.44793854648,0,0.663322532236,0.0,0.0,0.0,0
2014-02-16 06:42:00,0.314109104003,0,0.792112897922,0.0,0.0,0.0,0
2014-02-16 06:47:00,0.324011282482,0,0.608701290193,0.0,0.0,0.0,0
2014-02-16 06:52:00,0.346096141151,0,0.593721602185,0.0,0.0,0.0,0
2014-02-16 06:57:00,0.264118105983,0,0.739507851768,0.0,0.0,0.0,0
2014-02-16 07:02:00,0.538858548881,0,0.61867743503,0.0,0.0,0.0,0
2014-02-16 07:07:00,0.360619336254,0,0.881071570036,0.0,0.0,0.0,0
2014-02-16 07:12:00,0.22396927324,0,0.751948992624,0.0,0.0,0.0,0
2014-02-16 07:17:00,0.470563523975,0,0.604870446917,0.0,0.0,0.0,0
2014-02-16 07:22:00,0.350057012543,0,0.791118842014,0.0,0.0,0.0,0
2014-02-16 07:27:00,0.271859809158,0,0.581718317661,0.0,0.0,0.0,0
2014-02-16 07:32:00,0.44235731861,0,0.703383611451,0.0,0.0,0.0,0
2014-02-16 07:37:00,0.321730780772,0,0.698813337487,0.0,0.0,0.0,0
2014-02-16 07:42:00,0.334333553382,0,0.674753930978,0.0,0.0,0.0,0
2014-02-16 07:47:00,0.327492048251,0,0.793598732534,0.0,0.0,0.0,0
2014-02-16 07:52:00,0.159875172538,0,0.914517675948,0.0,0.0,0.0,0
2014-02-16 07:57:00,0.601992438336,0,0.509761476823,0.0,0.0,0.0,0
2014-02-16 08:02:00,0.313448958771,0,0.705776189351,0.0,0.0,0.0,0
2014-02-16 08:07:00,0.290403888856,0,0.766252078877,0.0,0.0,0.0,0
2014-02-16 08:12:00,0.387385224749,0,0.695339493169,0.0,0.0,0.0,0
2014-02-16 08:17:00,0.149312848827,0,0.888497208969,0.0,0.0,0.0,0
2014-02-16 08:22:00,0.477465042309,0,0.84515635556,0.0,0.0,0.0,0
2014-02-16 08:27:00,0.345856088339,0,0.809645191619,0.0,0.0,0.0,0
2014-02-16 08:32:00,0.21838804537,0,0.938948642657,0.0,0.0,0.0,0
2014-02-16 08:37:00,0.519114205125,0,0.669910493382,0.0,0.0,0.0,0
2014-02-16 08:42:00,0.314829262438,0,0.675434736615,0.0,0.0,0.0,0
2014-02-16 08:47:00,0.260697353418,0,0.935179182433,0.0,0.0,0.0,0
2014-02-16 08:52:00,0.402088459461,0,0.842250742266,0.0,0.0,0.0,0
2014-02-16 08:57:00,0.212686791094,0,0.926812496233,0.0,0.0,0.0,0
2014-02-16 09:02:00,0.442237292204,0,0.871972295937,0.0,0.0,0.0,0
2014-02-16 09:07:00,0.384984696633,0,0.588971948316,0.0,0.0,0.0,0
2014-02-16 09:12:00,0.174818460061,0,0.936051363563,0.0,0.0,0.0,0
2014-02-16 09:17:00,0.465342375323,0,0.797460690052,0.0,0.0,0.0,0
2014-02-16 09:22:00,0.331993038468,0,0.570120255426,0.0,0.0,0.0,0
2014-02-16 09:27:00,0.240712956851,0,0.962791913133,0.0,0.0,0.0,0
2014-02-16 09:32:00,0.393086479025,0,0.908606625216,0.0,0.0,0.0,0