timestamp,value,is_anomaly,anomaly_score
2014-04-10 00:04:00,0.141984732824,0,0.5
2014-04-10 00:09:00,0.0839694656489,0,0.5
2014-04-10 00:14:00,0.283969465649,0,0.5
2014-04-10 00:19:00,0.143511450382,0,0.5
2014-04-10 00:24:00,0.0763358778626,0,0.5
2014-04-10 00:29:00,0.0137404580153,0,0.5
2014-04-10 00:34:00,0.0732824427481,0,0.5
2014-04-10 00:39:00,0.119083969466,0,0.5
2014-04-10 00:44:00,0.0351145038168,0,0.5
2014-04-10 00:49:00,0.109923664122,0,0.5
2014-04-10 00:54:00,0.0671755725191,0,0.5
2014-04-10 00:59:00,0.012213740458,0,0.5
2014-04-10 01:04:00,0.0488549618321,0,0.5
2014-04-10 01:09:00,0.0198473282443,0,0.5
2014-04-10 01:14:00,0.0854961832061,0,0.5
2014-04-10 01:19:00,0.210687022901,0,0.5
2014-04-10 01:24:00,0.030534351145,0,0.5
2014-04-10 01:29:00,0.0702290076336,0,0.5
2014-04-10 01:34:00,0.187786259542,0,0.5
2014-04-10 01:39:00,0.0503816793893,0,0.5
2014-04-10 01:44:00,0.109923664122,0,0.5
2014-04-10 01:49:00,0.00763358778626,0,0.5
2014-04-10 01:54:00,0.174045801527,0,0.5
2014-04-10 01:59:00,0.0198473282443,0,0.5
2014-04-10 02:04:00,0.030534351145,0,0.5
2014-04-10 02:09:00,0.137404580153,0,0.5
2014-04-10 02:14:00,0.0824427480916,0,0.5
2014-04-10 02:19:00,0.128244274809,0,0.5
2014-04-10 02:24:00,0.154198473282,0,0.5
2014-04-10 02:29:00,0.180152671756,0,0.5
2014-04-10 02:34:00,0.210687022901,0,0.5
2014-04-10 02:39:00,0.103816793893,0,0.5
2014-04-10 02:44:00,0.215267175573,0,0.5
2014-04-10 02:49:00,0.0671755725191,0,0.5
2014-04-10 02:54:00,0.0717557251908,0,0.5
2014-04-10 02:59:00,0.0030534351145,0,0.5
2014-04-10 03:04:00,0.0473282442748,0,0.5
2014-04-10 03:09:00,0.00458015267176,0,0.5
2014-04-10 03:14:00,0.108396946565,0,0.5
2014-04-10 03:19:00,0.15572519084,0,0.5
2014-04-10 03:24:00,0.0961832061069,0,0.5
2014-04-10 03:29:00,0.0656488549618,0,0.5
2014-04-10 03:34:00,0.0442748091603,0,0.5
2014-04-10 03:39:00,0.00458015267176,0,0.5
2014-04-10 03:44:00,0.00458015267176,0,0.5
2014-04-10 03:49:00,0.119083969466,0,0.5
2014-04-10 03:54:00,0.125190839695,0,0.5
2014-04-10 03:59:00,0.0030534351145,0,0.5
2014-04-10 04:04:00,0.030534351145,0,0.5
2014-04-10 04:09:00,0.0488549618321,0,0.5
2014-04-10 04:14:00,0.108396946565,0,0.5
2014-04-10 04:19:00,0.131297709924,0,0.5
2014-04-10 04:24:00,0.288549618321,0,0.5
2014-04-10 04:29:00,0.0137404580153,0,0.5
2014-04-10 04:34:00,0.0656488549618,0,0.5
2014-04-10 04:39:00,0.0351145038168,0,0.5
2014-04-10 04:44:00,0.0473282442748,0,0.5
2014-04-10 04:49:00,0.167938931298,0,0.5
2014-04-10 04:54:00,0.160305343511,0,0.5
2014-04-10 04:59:00,0.0732824427481,0,0.5
2014-04-10 05:04:00,0.0839694656489,0,0.5
2014-04-10 05:09:00,0.119083969466,0,0.5
2014-04-10 05:14:00,0.0625954198473,0,0.5
2014-04-10 05:19:00,0.169465648855,0,0.5
2014-04-10 05:24:00,0.030534351145,0,0.5
2014-04-10 05:29:00,0.0717557251908,0,0.5
2014-04-10 05:34:00,0.0717557251908,0,0.5
2014-04-10 05:39:00,0.137404580153,0,0.5
2014-04-10 05:44:00,0.290076335878,0,0.5
2014-04-10 05:49:00,0.0106870229008,0,0.5
2014-04-10 05:54:00,0.036641221374,0,0.5
2014-04-10 05:59:00,0.140458015267,0,0.5
2014-04-10 06:04:00,0.0549618320611,0,0.5
2014-04-10 06:09:00,0.0351145038168,0,0.5
2014-04-10 06:14:00,0.0519083969466,0,0.5
2014-04-10 06:19:00,0.0671755725191,0,0.5
2014-04-10 06:24:00,0.0152671755725,0,0.5
2014-04-10 06:29:00,0.0748091603053,0,0.5
2014-04-10 06:34:00,0.0030534351145,0,0.5
2014-04-10 06:39:00,0.112977099237,0,0.5
2014-04-10 06:44:00,0.119083969466,0,0.5
2014-04-10 06:49:00,0.0320610687023,0,0.5
2014-04-10 06:54:00,0.21679389313,0,0.5
2014-04-10 06:59:00,0.0351145038168,0,0.5
2014-04-10 07:04:00,0.337404580153,0,0.5
2014-04-10 07:09:00,0.0854961832061,0,0.5
2014-04-10 07:14:00,0.0137404580153,0,0.5
2014-04-10 07:19:00,0.0687022900763,0,0.5
2014-04-10 07:24:00,0.00763358778626,0,0.5
2014-04-10 07:29:00,0.0900763358779,0,0.5
2014-04-10 07:34:00,0.0442748091603,0,0.5
2014-04-10 07:39:00,0.024427480916,0,0.5
2014-04-10 07:44:00,0.0152671755725,0,0.5
2014-04-10 07:49:00,0.161832061069,0,0.5
2014-04-10 07:54:00,0.181679389313,0,0.5
2014-04-10 07:59:00,0.00458015267176,0,0.5
2014-04-10 08:04:00,0.227480916031,0,0.5
2014-04-10 08:09:00,0.135877862595,0,0.5
2014-04-10 08:14:00,0.0778625954198,0,0.5
2014-04-10 08:19:00,0.0519083969466,0,0.5
2014-04-10 08:24:00,0.0106870229008,0,0.5
2014-04-10 08:29:00,0.00610687022901,0,0.5
2014-04-10 08:34:00,0.253435114504,0,0.5
2014-04-10 08:39:00,0.210687022901,0,0.5
2014-04-10 08:44:00,0.0809160305344,0,0.5
2014-04-10 08:49:00,0.0030534351145,0,0.5
2014-04-10 08:54:00,0.154198473282,0,0.5
2014-04-10 08:59:00,0.0167938931298,0,0.5
2014-04-10 09:04:00,0.024427480916,0,0.5
2014-04-10 09:09:00,0.0992366412214,0,0.5
2014-04-10 09:14:00,0.141984732824,0,0.5
2014-04-10 09:19:00,0.00763358778626,0,0.5
2014-04-10 09:24:00,0.154198473282,0,0.5
2014-04-10 09:29:00,0.123664122137,0,0.5
2014-04-10 09:34:00,0.0671755725191,0,0.5
2014-04-10 09:39:00,0.0106870229008,0,0.5
2014-04-10 09:44:00,0.0030534351145,0,0.5
2014-04-10 09:49:00,0.161832061069,0,0.5
2014-04-10 09:54:00,0.0213740458015,0,0.5
2014-04-10 09:59:00,0.012213740458,0,0.5
2014-04-10 10:04:00,0.0,0,0.5
2014-04-10 10:09:00,0.0916030534351,0,0.5
2014-04-10 10:14:00,0.0748091603053,0,0.5
2014-04-10 10:19:00,0.129770992366,0,0.5
2014-04-10 10:24:00,0.103816793893,0,0.5
2014-04-10 10:29:00,0.00610687022901,0,0.5
2014-04-10 10:34:00,0.0885496183206,0,0.5
2014-04-10 10:39:00,0.0503816793893,0,0.5
2014-04-10 10:44:00,0.143511450382,0,0.5
2014-04-10 10:49:00,0.120610687023,0,0.5
2014-04-10 10:54:00,0.221374045802,0,0.5
2014-04-10 10:59:00,0.108396946565,0,0.5
2014-04-10 11:04:00,0.0656488549618,0,0.5
2014-04-10 11:09:00,0.158778625954,0,0.5
2014-04-10 11:14:00,0.102290076336,0,0.5
2014-04-10 11:19:00,0.0595419847328,0,0.5
2014-04-10 11:24:00,0.0198473282443,0,0.5
2014-04-10 11:29:00,0.00763358778626,0,0.5
2014-04-10 11:39:00,0.119083969466,0,0.5
2014-04-10 11:44:00,0.27786259542,0,0.5
2014-04-10 11:49:00,0.209160305344,0,0.5
2014-04-10 11:54:00,0.180152671756,0,0.5
2014-04-10 11:59:00,0.387786259542,0,0.5
2014-04-10 12:04:00,0.111450381679,0,0.5
2014-04-10 12:09:00,0.0519083969466,0,0.5
2014-04-10 12:14:00,0.0167938931298,0,0.5
2014-04-10 12:19:00,0.102290076336,0,0.5
2014-04-10 12:24:00,0.0,0,0.5
2014-04-10 12:29:00,0.148091603053,0,0.5
2014-04-10 12:34:00,0.030534351145,0,0.5
2014-04-10 12:39:00,0.100763358779,0,0.5
2014-04-10 12:44:00,0.267175572519,0,0.5
2014-04-10 12:49:00,0.302290076336,0,0.5
2014-04-10 12:54:00,0.181679389313,0,0.5
2014-04-10 12:59:00,0.0946564885496,0,0.5
2014-04-10 13:04:00,0.276335877863,0,0.5
2014-04-10 13:09:00,0.251908396947,0,0.5
2014-04-10 13:14:00,0.157251908397,0,0.5
2014-04-10 13:19:00,0.213740458015,0,0.5
2014-04-10 13:24:00,0.0900763358779,0,0.5
2014-04-10 13:29:00,0.012213740458,0,0.5
2014-04-10 13:34:00,0.0961832061069,0,0.5
2014-04-10 13:39:00,0.0763358778626,0,0.5
2014-04-10 13:44:00,0.126717557252,0,0.5
2014-04-10 13:49:00,0.0396946564885,0,0.5
2014-04-10 13:54:00,0.280916030534,0,0.5
2014-04-10 13:59:00,0.114503816794,0,0.5
2014-04-10 14:04:00,0.13893129771,0,0.5
2014-04-10 14:09:00,0.146564885496,0,0.5
2014-04-10 14:14:00,0.0381679389313,0,0.5
2014-04-10 14:19:00,0.254961832061,0,0.5
2014-04-10 14:24:00,0.0503816793893,0,0.5
2014-04-10 14:29:00,0.0137404580153,0,0.5
2014-04-10 14:34:00,0.0809160305344,0,0.5
2014-04-10 14:39:00,0.300763358779,0,0.5
2014-04-10 14:44:00,0.215267175573,0,0.5
2014-04-10 14:49:00,0.352671755725,0,0.5
2014-04-10 14:54:00,0.00916030534351,0,0.5
2014-04-10 14:59:00,0.152671755725,0,0.5
2014-04-10 15:04:00,0.0778625954198,0,0.5
2014-04-10 15:09:00,0.254961832061,0,0.5
2014-04-10 15:14:00,0.0946564885496,0,0.5
2014-04-10 15:19:00,0.0519083969466,0,0.5
2014-04-10 15:24:00,0.0137404580153,0,0.5
2014-04-10 15:29:00,0.152671755725,0,0.5
2014-04-10 15:34:00,0.141984732824,0,0.5
2014-04-10 15:39:00,0.0427480916031,0,0.5
2014-04-10 15:44:00,0.0977099236641,0,0.5
2014-04-10 15:49:00,0.125190839695,0,0.5
2014-04-10 15:54:00,0.282442748092,0,0.5
2014-04-10 15:59:00,0.296183206107,0,0.5
2014-04-10 16:04:00,0.0396946564885,0,0.5
2014-04-10 16:09:00,0.0717557251908,0,0.5
2014-04-10 16:14:00,0.509923664122,0,0.5
2014-04-10 16:19:00,0.140458015267,0,0.5
2014-04-10 16:24:00,0.00916030534351,0,0.5
2014-04-10 16:29:00,0.0900763358779,0,0.5
2014-04-10 16:34:00,0.401526717557,0,0.5
2014-04-10 16:39:00,0.0580152671756,0,0.5
2014-04-10 16:44:00,0.175572519084,0,0.5
2014-04-10 16:49:00,0.0152671755725,0,0.5
2014-04-10 16:54:00,0.180152671756,0,0.5
2014-04-10 16:59:00,0.195419847328,0,0.5
2014-04-10 17:04:00,0.0748091603053,0,0.5
2014-04-10 17:09:00,0.152671755725,0,0.5
2014-04-10 17:14:00,0.283969465649,0,0.5
2014-04-10 17:19:00,0.036641221374,0,0.5
2014-04-10 17:24:00,0.0793893129771,0,0.5
2014-04-10 17:29:00,0.195419847328,0,0.5
2014-04-10 17:34:00,0.258015267176,0,0.5
2014-04-10 17:39:00,0.129770992366,0,0.5
2014-04-10 17:44:00,0.149618320611,0,0.5
2014-04-10 17:49:00,0.0198473282443,0,0.5
2014-04-10 17:54:00,0.0961832061069,0,0.5
2014-04-10 17:59:00,0.0687022900763,0,0.5
2014-04-10 18:04:00,0.123664122137,0,0.5
2014-04-10 18:09:00,0.024427480916,0,0.5
2014-04-10 18:14:00,0.0610687022901,0,0.5
2014-04-10 18:19:00,0.0198473282443,0,0.5
2014-04-10 18:24:00,0.46106870229,0,0.5
2014-04-10 18:29:00,0.120610687023,0,0.5
2014-04-10 18:34:00,0.0213740458015,0,0.5
2014-04-10 18:39:00,0.106870229008,0,0.5
2014-04-10 18:44:00,0.117557251908,0,0.5
2014-04-10 18:49:00,0.0641221374046,0,0.5
2014-04-10 18:54:00,0.0656488549618,0,0.5
2014-04-10 18:59:00,0.140458015267,0,0.5
2014-04-10 19:04:00,0.0839694656489,0,0.5
2014-04-10 19:09:00,0.232061068702,0,0.5
2014-04-10 19:14:00,0.0961832061069,0,0.5
2014-04-10 19:19:00,0.236641221374,0,0.5
2014-04-10 19:24:00,0.12213740458,0,0.5
2014-04-10 19:29:00,0.141984732824,0,0.5
2014-04-10 19:34:00,0.012213740458,0,0.5
2014-04-10 19:39:00,0.0961832061069,0,0.5
2014-04-10 19:44:00,0.196946564885,0,0.5
2014-04-10 19:49:00,0.0519083969466,0,0.5
2014-04-10 19:54:00,0.0503816793893,0,0.5
2014-04-10 19:59:00,0.126717557252,0,0.5
2014-04-10 20:04:00,0.0702290076336,0,0.5
2014-04-10 20:09:00,0.154198473282,0,0.5
2014-04-10 20:14:00,0.0580152671756,0,0.5
2014-04-10 20:19:00,0.100763358779,0,0.5
2014-04-10 20:24:00,0.0671755725191,0,0.5
2014-04-10 20:29:00,0.0442748091603,0,0.5
2014-04-10 20:34:00,0.0137404580153,0,0.5
2014-04-10 20:39:00,0.0534351145038,0,0.5
2014-04-10 20:44:00,0.0549618320611,0,0.5
2014-04-10 20:49:00,0.0167938931298,0,0.5
2014-04-10 20:54:00,0.180152671756,0,0.5
2014-04-10 20:59:00,0.160305343511,0,0.5
2014-04-10 21:04:00,0.030534351145,0,0.5
2014-04-10 21:09:00,0.0839694656489,0,0.5
2014-04-10 21:14:00,0.157251908397,0,0.5
2014-04-10 21:19:00,0.0259541984733,0,0.5
2014-04-10 21:24:00,0.0152671755725,0,0.5
2014-04-10 21:29:00,0.0137404580153,0,0.5
2014-04-10 21:34:00,0.10534351145,0,0.5
2014-04-10 21:39:00,0.175572519084,0,0.5
2014-04-10 21:44:00,0.0274809160305,0,0.5
2014-04-10 21:49:00,0.0916030534351,0,0.5
2014-04-10 21:54:00,0.0961832061069,0,0.5
2014-04-10 21:59:00,0.0824427480916,0,0.5
2014-04-10 22:04:00,0.00458015267176,0,0.5
2014-04-10 22:09:00,0.187786259542,0,0.5
2014-04-10 22:14:00,0.00152671755725,0,0.5
2014-04-10 22:19:00,0.0473282442748,0,0.5
2014-04-10 22:24:00,0.114503816794,0,0.5
2014-04-10 22:29:00,0.0106870229008,0,0.5
2014-04-10 22:34:00,0.114503816794,0,0.5
2014-04-10 22:39:00,0.317557251908,0,0.5
2014-04-10 22:44:00,0.0290076335878,0,0.5
2014-04-10 22:49:00,0.186259541985,0,0.5
2014-04-10 22:54:00,0.0473282442748,0,0.5
2014-04-10 22:59:00,0.0473282442748,0,0.5
2014-04-10 23:04:00,0.0458015267176,0,0.5
2014-04-10 23:09:00,0.13893129771,0,0.5
2014-04-10 23:14:00,0.18320610687,0,0.5
2014-04-10 23:19:00,0.00763358778626,0,0.5
2014-04-10 23:24:00,0.0885496183206,0,0.5
2014-04-10 23:29:00,0.012213740458,0,0.5
2014-04-10 23:34:00,0.036641221374,0,0.5
2014-04-10 23:39:00,0.0809160305344,0,0.5
2014-04-10 23:44:00,0.170992366412,0,0.5
2014-04-10 23:49:00,0.0580152671756,0,0.5
2014-04-10 23:54:00,0.00610687022901,0,0.5
2014-04-10 23:59:00,0.012213740458,0,0.5
2014-04-11 00:04:00,0.143511450382,0,0.5
2014-04-11 00:09:00,0.0564885496183,0,0.5
2014-04-11 00:14:00,0.00916030534351,0,0.5
2014-04-11 00:19:00,0.158778625954,0,0.5
2014-04-11 00:24:00,0.0946564885496,0,0.5
2014-04-11 00:29:00,0.036641221374,0,0.5
2014-04-11 00:34:00,0.0412213740458,0,0.5
2014-04-11 00:39:00,0.0748091603053,0,0.5
2014-04-11 00:44:00,0.0732824427481,0,0.5
2014-04-11 00:49:00,0.0610687022901,0,0.5
2014-04-11 00:54:00,0.0442748091603,0,0.5
2014-04-11 00:59:00,0.160305343511,0,0.5
2014-04-11 01:04:00,0.213740458015,0,0.5
2014-04-11 01:09:00,0.0854961832061,0,0.5
2014-04-11 01:14:00,0.0656488549618,0,0.5
2014-04-11 01:19:00,0.143511450382,0,0.5
2014-04-11 01:24:00,0.0778625954198,0,0.5
2014-04-11 01:29:00,0.360305343511,0,0.5
2014-04-11 01:34:00,0.143511450382,0,0.5
2014-04-11 01:39:00,0.0564885496183,0,0.5
2014-04-11 01:44:00,0.13893129771,0,0.5
2014-04-11 01:49:00,0.0030534351145,0,0.5
2014-04-11 01:54:00,0.0931297709924,0,0.5
2014-04-11 01:59:00,0.00610687022901,0,0.5
2014-04-11 02:04:00,0.0687022900763,0,0.5
2014-04-11 02:09:00,0.012213740458,0,0.5
2014-04-11 02:14:00,0.10534351145,0,0.5
2014-04-11 02:19:00,0.161832061069,0,0.5
2014-04-11 02:24:00,0.012213740458,0,0.5
2014-04-11 02:29:00,0.0412213740458,0,0.5
2014-04-11 02:34:00,0.0916030534351,0,0.5
2014-04-11 02:39:00,0.036641221374,0,0.5
2014-04-11 02:44:00,0.0213740458015,0,0.5
2014-04-11 02:49:00,0.018320610687,0,0.5
2014-04-11 02:54:00,0.030534351145,0,0.5
2014-04-11 02:59:00,0.18320610687,0,0.5
2014-04-11 03:04:00,0.172519083969,0,0.5
2014-04-11 03:09:00,0.0580152671756,0,0.5
2014-04-11 03:14:00,0.030534351145,0,0.5
2014-04-11 03:19:00,0.0793893129771,0,0.5
2014-04-11 03:24:00,0.030534351145,0,0.5
2014-04-11 03:29:00,0.0137404580153,0,0.5
2014-04-11 03:34:00,0.0106870229008,0,0.5
2014-04-11 03:39:00,0.112977099237,0,0.5
2014-04-11 03:44:00,0.0137404580153,0,0.5
2014-04-11 03:49:00,0.0534351145038,0,0.5
2014-04-11 03:54:00,0.169465648855,0,0.5
2014-04-11 03:59:00,0.102290076336,0,0.5
2014-04-11 04:04:00,0.230534351145,0,0.5
2014-04-11 04:09:00,0.128244274809,0,0.5
2014-04-11 04:14:00,0.0030534351145,0,0.5
2014-04-11 04:19:00,0.111450381679,0,0.5
2014-04-11 04:24:00,0.112977099237,0,0.5
2014-04-11 04:29:00,0.23358778626,0,0.5
2014-04-11 04:34:00,0.157251908397,0,0.5
2014-04-11 04:39:00,0.018320610687,0,0.5
2014-04-11 04:44:00,0.152671755725,0,0.5
2014-04-11 04:49:00,0.0381679389313,0,0.5
2014-04-11 04:54:00,0.198473282443,0,0.5
2014-04-11 04:59:00,0.0946564885496,0,0.5
2014-04-11 05:04:00,0.0809160305344,0,0.5
2014-04-11 05:09:00,0.0564885496183,0,0.5
2014-04-11 05:14:00,0.0854961832061,0,0.5
2014-04-11 05:19:00,0.0809160305344,0,0.5
2014-04-11 05:24:00,0.109923664122,0,0.5
2014-04-11 05:29:00,0.158778625954,0,0.5
2014-04-11 05:34:00,0.0839694656489,0,0.5
2014-04-11 05:39:00,0.143511450382,0,0.5
2014-04-11 05:44:00,0.16641221374,0,0.5
2014-04-11 05:49:00,0.0259541984733,0,0.5
2014-04-11 05:54:00,0.0030534351145,0,0.5
2014-04-11 05:59:00,0.0229007633588,0,0.5
2014-04-11 06:04:00,0.0137404580153,0,0.5
2014-04-11 06:09:00,0.0137404580153,0,0.5
2014-04-11 06:14:00,0.0274809160305,0,0.5
2014-04-11 06:19:00,0.0106870229008,0,0.5
2014-04-11 06:24:00,0.00458015267176,0,0.5
2014-04-11 06:29:00,0.102290076336,0,0.5
2014-04-11 06:34:00,0.0793893129771,0,0.5
2014-04-11 06:39:00,0.189312977099,0,0.5
2014-04-11 06:44:00,0.0290076335878,0,0.5
2014-04-11 06:49:00,0.0167938931298,0,0.5
2014-04-11 06:54:00,0.0503816793893,0,0.5
2014-04-11 06:59:00,0.128244274809,0,0.5
2014-04-11 07:04:00,0.0137404580153,0,0.5
2014-04-11 07:09:00,0.152671755725,0,0.5
2014-04-11 07:14:00,0.100763358779,0,0.5
2014-04-11 07:19:00,0.0854961832061,0,0.5
2014-04-11 07:24:00,0.0198473282443,0,0.5
2014-04-11 07:29:00,0.0534351145038,0,0.5
2014-04-11 07:34:00,0.111450381679,0,0.5
2014-04-11 07:39:00,0.024427480916,0,0.5
2014-04-11 07:44:00,0.018320610687,0,0.5
2014-04-11 07:49:00,0.012213740458,0,0.5
2014-04-11 07:54:00,0.0137404580153,0,0.5
2014-04-11 07:59:00,0.0702290076336,0,0.5
2014-04-11 08:04:00,0.0473282442748,0,0.5
2014-04-11 08:09:00,0.0259541984733,0,0.5
2014-04-11 08:14:00,0.0595419847328,0,0.5
2014-04-11 08:19:00,0.170992366412,0,0.5
2014-04-11 08:24:00,0.024427480916,0,0.5
2014-04-11 08:29:00,0.117557251908,0,0.828579050207
2014-04-11 08:34:00,0.0732824427481,0,0.768688911019
2014-04-11 08:39:00,0.00916030534351,0,0.772295068398
2014-04-11 08:44:00,0.0793893129771,0,0.688209174677
2014-04-11 08:49:00,0.308396946565,0,0.668827839327
2014-04-11 08:54:00,0.108396946565,0,0.749999720157
2014-04-11 08:59:00,0.0580152671756,0,0.787953113125
2014-04-11 09:04:00,0.0870229007634,0,0.817625666702
2014-04-11 09:09:00,0.116030534351,0,0.755633255894
2014-04-11 09:14:00,0.229007633588,0,0.931754792262
2014-04-11 09:19:00,0.38320610687,0,0.994189724402
2014-04-11 09:24:00,0.16641221374,0,0.998049899721
2014-04-11 09:29:00,0.030534351145,0,0.997362565459
2014-04-11 09:34:00,0.180152671756,0,0.999229617635
2014-04-11 09:39:00,0.024427480916,0,0.982312292352
2014-04-11 09:44:00,0.0458015267176,0,0.969240630089
2014-04-11 09:49:00,0.00458015267176,0,0.952515402213
2014-04-11 09:54:00,0.030534351145,0,0.92762370964
2014-04-11 09:59:00,0.0625954198473,0,0.895861758511
2014-04-11 10:04:00,0.225954198473,0,0.893781121729
2014-04-11 10:09:00,0.303816793893,0,0.828879530224
2014-04-11 10:14:00,0.0992366412214,0,0.75751073442
2014-04-11 10:19:00,0.012213740458,0,0.735569654718
2014-04-11 10:24:00,0.10534351145,0,0.636735180839
2014-04-11 10:29:00,0.129770992366,0,0.771571465523
2014-04-11 10:34:00,0.0427480916031,0,0.768099847155
2014-04-11 10:39:00,0.161832061069,0,0.906778668563
2014-04-11 10:44:00,0.154198473282,0,0.962790939967
2014-04-11 10:49:00,0.0992366412214,0,0.972645317589
2014-04-11 10:54:00,0.0290076335878,0,0.881799988977
2014-04-11 10:59:00,0.151145038168,0,0.729930644761
2014-04-11 11:04:00,0.134351145038,0,0.771571465523
2014-04-11 11:09:00,0.0854961832061,0,0.845736650449
2014-04-11 11:14:00,0.0198473282443,0,0.75751073442
2014-04-11 11:19:00,0.0702290076336,0,0.682770474148
2014-04-11 11:24:00,0.0549618320611,0,0.698877390426
2014-04-11 11:29:00,0.0824427480916,0,0.588633429958
2014-04-11 11:34:00,0.0167938931298,0,0.614189676501
2014-04-11 11:39:00,0.024427480916,0,0.715748036814
2014-04-11 11:44:00,0.00458015267176,0,0.745913432608
2014-04-11 11:49:00,0.0702290076336,0,0.832613048397
2014-04-11 11:54:00,0.0946564885496,0,0.867170358064
2014-04-11 11:59:00,0.279389312977,0,0.650769475191
2014-04-11 12:04:00,0.163358778626,0,0.559517174317
2014-04-11 12:09:00,0.0167938931298,0,0.520040488484
2014-04-11 12:14:00,0.0763358778626,0,0.511864771185
2014-04-11 12:19:00,0.0519083969466,0,0.533686840072
2014-04-11 12:24:00,0.116030534351,0,0.612901083044
2014-04-11 12:29:00,0.018320610687,0,0.604122035204
2014-04-11 12:34:00,0.00458015267176,0,0.604122035204
2014-04-11 12:39:00,0.404580152672,0,0.935172298047
2014-04-11 12:44:00,0.0519083969466,0,0.912364772822
2014-04-11 12:49:00,0.00458015267176,0,0.628123852099
2014-04-11 12:54:00,0.0396946564885,0,0.554077365252
2014-04-11 12:59:00,0.0946564885496,0,0.56177045599
2014-04-11 13:04:00,0.0488549618321,0,0.520975545832
2014-04-11 13:09:00,0.0793893129771,0,0.56177045599
2014-04-11 13:14:00,0.00763358778626,0,0.598805152943
2014-04-11 13:19:00,0.00610687022901,0,0.616373492784
2014-04-11 13:24:00,0.00763358778626,0,0.61200223513
2014-04-11 13:29:00,0.0931297709924,0,0.926506700965
2014-04-11 13:34:00,0.221374045802,0,0.792741637445
2014-04-11 13:39:00,0.0167938931298,0,0.779426158034
2014-04-11 13:44:00,0.132824427481,0,0.663372341701
2014-04-11 13:49:00,0.111450381679,0,0.640137832352
2014-04-11 13:54:00,0.334351145038,0,0.761069261258
2014-04-11 13:59:00,0.157251908397,0,0.841629001298
2014-04-11 14:04:00,0.0824427480916,0,0.899934071751
2014-04-11 14:09:00,0.0580152671756,0,0.929955823406
2014-04-11 14:14:00,0.0763358778626,0,0.958417090342
2014-04-11 14:19:00,0.0381679389313,0,0.936605911508
2014-04-11 14:24:00,0.00763358778626,0,0.766353079111
2014-04-11 14:29:00,0.102290076336,0,0.852424800556
2014-04-11 14:34:00,0.161832061069,0,0.876049246793
2014-04-11 14:39:00,0.0946564885496,0,0.862716189493
2014-04-11 14:44:00,0.239694656489,0,0.769839317985
2014-04-11 14:49:00,0.174045801527,0,0.7884848427
2014-04-11 14:54:00,0.00763358778626,0,0.698877390426
2014-04-11 14:59:00,0.158778625954,0,0.8154920061
2014-04-11 15:04:00,0.164885496183,0,0.890604129595
2014-04-11 15:09:00,0.209160305344,0,0.969240630089
2014-04-11 15:14:00,0.116030534351,0,0.988560935029
2014-04-11 15:19:00,0.0702290076336,0,0.984437206276
2014-04-11 15:24:00,0.13893129771,0,0.980762071047
2014-04-11 15:29:00,0.283969465649,0,0.997267976245
2014-04-11 15:34:00,0.0564885496183,0,0.981807836995
2014-04-11 15:39:00,0.100763358779,0,0.965492374119
2014-04-11 15:44:00,0.0427480916031,0,0.974396962939
2014-04-11 15:49:00,0.0885496183206,0,0.954187850983
2014-04-11 15:54:00,0.140458015267,0,0.944695555904
2014-04-11 15:59:00,0.114503816794,0,0.892729614747
2014-04-11 16:04:00,0.189312977099,0,0.935172298047
2014-04-11 16:09:00,0.15572519084,0,0.966781426866
2014-04-11 16:14:00,0.276335877863,0,0.9906069761
2014-04-11 16:19:00,0.203053435115,0,0.979665644648
2014-04-11 16:24:00,0.0885496183206,0,0.984878455829
2014-04-11 16:29:00,0.0717557251908,0,0.980220305483
2014-04-11 16:34:00,0.154198473282,0,0.993346842315
2014-04-11 16:39:00,0.123664122137,0,0.995431603184
2014-04-11 16:44:00,0.425954198473,0,0.999881292367
2014-04-11 16:49:00,0.0992366412214,0,0.999851741166
2014-04-11 16:54:00,0.0503816793893,0,0.999026902194
2014-04-11 16:59:00,0.158778625954,0,0.999063774479
2014-04-11 17:04:00,0.131297709924,0,0.994869283643
2014-04-11 17:09:00,0.0412213740458,0,0.975070829915
2014-04-11 17:14:00,0.0488549618321,0,0.965053664107
2014-04-11 17:19:00,0.151145038168,0,0.982560011577
2014-04-11 17:24:00,0.169465648855,0,0.984878455829
2014-04-11 17:29:00,0.0641221374046,0,0.974054351016
2014-04-11 17:34:00,0.0900763358779,0,0.753923694412
2014-04-11 17:39:00,0.0793893129771,0,0.729930644761
2014-04-11 17:44:00,0.0977099236641,0,0.785162071875
2014-04-11 17:49:00,0.0274809160305,0,0.572234961842
2014-04-11 17:54:00,0.198473282443,0,0.512910502935
2014-04-11 17:59:00,0.218320610687,0,0.724978265057
2014-04-11 18:04:00,0.128244274809,0,0.802648002929
2014-04-11 18:09:00,0.0213740458015,0,0.66889684432
2014-04-11 18:14:00,0.0595419847328,0,0.534257301902
2014-04-11 18:19:00,0.204580152672,0,0.703446603514
2014-04-11 18:24:00,0.0137404580153,0,0.614345720438
2014-04-11 18:29:00,0.172519083969,0,0.721716389161
2014-04-11 18:34:00,0.343511450382,0,0.915059076133
2014-04-11 18:39:00,0.0671755725191,0,0.933101426371
2014-04-11 18:44:00,0.0320610687023,0,0.833498284519
2014-04-11 18:49:00,0.201526717557,0,0.819765907916
2014-04-11 18:54:00,0.0961832061069,0,0.791641353458
2014-04-11 18:59:00,0.131297709924,0,0.877589812103
2014-04-11 19:04:00,0.0778625954198,0,0.889052497074
2014-04-11 19:09:00,0.0671755725191,0,0.783153699109
2014-04-11 19:14:00,0.163358778626,0,0.896254169994
2014-04-11 19:19:00,0.134351145038,0,0.872576446014
2014-04-11 19:24:00,0.206106870229,0,0.758048450985
2014-04-11 19:29:00,0.0610687022901,0,0.751920188729
2014-04-11 19:34:00,0.360305343511,0,0.958037253139
2014-04-11 19:39:00,0.219847328244,0,0.963017689845
2014-04-11 19:44:00,0.128244274809,0,0.970565870535
2014-04-11 19:49:00,0.0900763358779,0,0.960591443818
2014-04-11 19:54:00,0.254961832061,0,0.989908236739
2014-04-11 19:59:00,0.177099236641,0,0.99625027063
2014-04-11 20:04:00,0.0656488549618,0,0.990909391104
2014-04-11 20:09:00,0.2,0,0.994936577622
2014-04-11 20:14:00,0.129770992366,0,0.990038427062
2014-04-11 20:19:00,0.0900763358779,0,0.992248040772
2014-04-11 20:24:00,0.393893129771,0,0.9942578446
2014-04-11 20:29:00,0.413740458015,0,0.999173933133
2014-04-11 20:34:00,0.100763358779,0,0.998888943365
2014-04-11 20:39:00,0.196946564885,0,0.999663027548
2014-04-11 20:44:00,0.0595419847328,0,0.997249703568
2014-04-11 20:49:00,0.018320610687,0,0.988375257822
2014-04-11 20:54:00,0.12213740458,0,0.992849844581
2014-04-11 20:59:00,0.264122137405,0,0.996026548932
2014-04-11 21:04:00,0.163358778626,0,0.997123480332
2014-04-11 21:09:00,0.0687022900763,0,0.996462630236
2014-04-11 21:14:00,0.0809160305344,0,0.954889720704
2014-04-11 21:19:00,0.00763358778626,0,0.654641030843
2014-04-11 21:24:00,0.00610687022901,0,0.538129773358
2014-04-11 21:29:00,0.160305343511,0,0.508473359772
2014-04-11 21:34:00,0.0687022900763,0,0.503191471305
2014-04-11 21:39:00,0.0167938931298,0,0.501247252931
2014-04-11 21:44:00,0.245801526718,0,0.654641030843
2014-04-11 21:49:00,0.116030534351,0,0.529832892148
2014-04-11 21:54:00,0.00458015267176,0,0.719613981721
2014-04-11 21:59:00,0.0610687022901,0,0.727763446861
2014-04-11 22:04:00,0.0335877862595,0,0.775517489529
2014-04-11 22:09:00,0.222900763359,0,0.52789373448
2014-04-11 22:14:00,0.0412213740458,0,0.516796292811
2014-04-11 22:19:00,0.0687022900763,0,0.598820879845
2014-04-11 22:24:00,0.00458015267176,0,0.675439558968
2014-04-11 22:29:00,0.112977099237,0,0.558809871654
2014-04-11 22:34:00,0.0351145038168,0,0.794033663184
2014-04-11 22:39:00,0.117557251908,0,0.792642326886
2014-04-11 22:44:00,0.193893129771,0,0.583676594672
2014-04-11 22:49:00,0.0671755725191,0,0.57605609288
2014-04-11 22:54:00,0.0824427480916,0,0.514303682137
2014-04-11 22:59:00,0.0229007633588,0,0.749937123732
2014-04-11 23:04:00,0.0458015267176,0,0.745267625634
2014-04-11 23:09:00,0.509923664122,0,0.773003250628
2014-04-11 23:14:00,0.288549618321,0,0.951062828563
2014-04-11 23:19:00,0.0732824427481,0,0.936810239912
2014-04-11 23:24:00,0.0442748091603,0,0.940356945505
2014-04-11 23:29:00,0.0030534351145,0,0.883421043457
2014-04-11 23:34:00,0.143511450382,0,0.848832182279
2014-04-11 23:39:00,0.172519083969,0,0.914298572019
2014-04-11 23:44:00,0.287022900763,0,0.978347732701
2014-04-11 23:49:00,0.351145038168,0,0.9989245562
2014-04-11 23:54:00,0.145038167939,0,0.999644555018
2014-04-11 23:59:00,0.126717557252,0,0.984694482525
2014-04-12 00:04:00,0.172519083969,0,0.963409937076
2014-04-12 00:09:00,0.180152671756,0,0.983531548227
2014-04-12 00:14:00,0.0977099236641,0,0.989372515637
2014-04-12 00:19:00,0.18320610687,0,0.998002137675
2014-04-12 00:24:00,0.0931297709924,0,0.996712862541
2014-04-12 00:29:00,0.413740458015,0,0.999756392042
2014-04-12 00:34:00,0.152671755725,0,0.998888943365
2014-04-12 00:39:00,0.0274809160305,0,0.978598862693
2014-04-12 00:44:00,0.0656488549618,0,0.961820282099
2014-04-12 00:49:00,0.0351145038168,0,0.930536797615
2014-04-12 00:54:00,0.00610687022901,0,0.828584882256
2014-04-12 00:59:00,0.0198473282443,0,0.66889684432
2014-04-12 01:04:00,0.0687022900763,0,0.63467924812
2014-04-12 01:09:00,0.123664122137,0,0.561276071096
2014-04-12 01:14:00,0.0137404580153,0,0.539517157431
2014-04-12 01:19:00,0.0824427480916,0,0.876316764924
2014-04-12 01:24:00,0.0290076335878,0,0.939611948226
2014-04-12 01:29:00,0.178625954198,0,0.857475630706
2014-04-12 01:34:00,0.0274809160305,0,0.883150491032
2014-04-12 01:39:00,0.264122137405,0,0.677190684816
2014-04-12 01:44:00,0.10534351145,0,0.556886099136
2014-04-12 01:49:00,0.0198473282443,0,0.556886099136
2014-04-12 01:54:00,0.174045801527,0,0.576596250581
2014-04-12 01:59:00,0.158778625954,0,0.619925149398
2014-04-12 02:04:00,0.100763358779,0,0.720078408532
2014-04-12 02:09:00,0.0381679389313,0,0.538462983573
2014-04-12 02:14:00,0.259541984733,0,0.763425478564
2014-04-12 02:19:00,0.148091603053,0,0.737331210891
2014-04-12 02:24:00,0.0167938931298,0,0.72786225695
2014-04-12 02:29:00,0.0610687022901,0,0.523747271764
2014-04-12 02:34:00,0.0992366412214,0,0.517195339625
2014-04-12 02:39:00,0.0106870229008,0,0.507359281319
2014-04-12 02:44:00,0.102290076336,0,0.569374493449
2014-04-12 02:49:00,0.0732824427481,0,0.657266132367
2014-04-12 02:54:00,0.0412213740458,0,0.714083165621
2014-04-12 02:59:00,0.00610687022901,0,0.742699348358
2014-04-12 03:04:00,0.0320610687023,0,0.896933393904
2014-04-12 03:09:00,0.0625954198473,0,0.93247766345
2014-04-12 03:14:00,0.149618320611,0,0.872193282883
2014-04-12 03:19:00,0.0946564885496,0,0.852305389572
2014-04-12 03:24:00,0.00916030534351,0,0.901290080113
2014-04-12 03:29:00,0.0198473282443,0,0.896933393904
2014-04-12 03:34:00,0.116030534351,0,0.890139118002
2014-04-12 03:39:00,0.00610687022901,0,0.920458803451
2014-04-12 03:44:00,0.0839694656489,0,0.90200289294
2014-04-12 03:49:00,0.0931297709924,0,0.855133159388
2014-04-12 03:54:00,0.141984732824,0,0.777177112827
2014-04-12 03:59:00,0.0167938931298,0,0.812199986861
2014-04-12 04:04:00,0.0106870229008,0,0.896193905871
2014-04-12 04:09:00,0.134351145038,0,0.875599257154
2014-04-12 04:14:00,0.00763358778626,0,0.876440741062
2014-04-12 04:19:00,0.018320610687,0,0.87727823046
2014-04-12 04:24:00,0.0152671755725,0,0.924047081136
2014-04-12 04:29:00,0.0687022900763,0,0.896933393904
2014-04-12 04:34:00,0.123664122137,0,0.876440741062
2014-04-12 04:39:00,0.0793893129771,0,0.883834951248
2014-04-12 04:44:00,0.102290076336,0,0.903417188782
2014-04-12 04:49:00,0.00610687022901,0,0.908249130905
2014-04-12 04:54:00,0.106870229008,0,0.857924244978
2014-04-12 04:59:00,0.0641221374046,0,0.896193905871
2014-04-12 05:04:00,0.0610687022901,0,0.867845400973
2014-04-12 05:09:00,0.0534351145038,0,0.846539622433
2014-04-12 05:14:00,0.0793893129771,0,0.802067979311
2014-04-12 05:19:00,0.00458015267176,0,0.846539622433
2014-04-12 05:24:00,0.00610687022901,0,0.90959622622
2014-04-12 05:29:00,0.0793893129771,0,0.90959622622
2014-04-12 05:34:00,0.0198473282443,0,0.940653323172
2014-04-12 05:39:00,0.190839694656,0,0.856067594683
2014-04-12 05:44:00,0.265648854962,0,0.737365583289
2014-04-12 05:49:00,0.259541984733,0,0.543399348501
2014-04-12 05:54:00,0.0,0,0.607747298919
2014-04-12 05:59:00,0.0290076335878,0,0.632782856251
2014-04-12 06:04:00,0.00916030534351,0,0.701372320794
2014-04-12 06:09:00,0.0152671755725,0,0.691311981253
2014-04-12 06:14:00,0.0351145038168,0,0.663289808686
2014-04-12 06:19:00,0.0763358778626,0,0.6662861284
2014-04-12 06:24:00,0.102290076336,0,0.582257497259