timestamp,value,is_anomaly,anomaly_score
2014-03-01 17:36:00,0.0,0,0.5
2014-03-01 17:41:00,6.37267243571e-06,0,0.5
2014-03-01 17:46:00,0.0,0,0.5
2014-03-01 17:51:00,3.18633621785e-06,0,0.5
2014-03-01 17:56:00,3.18633621785e-06,0,0.5
2014-03-01 18:01:00,5.35883818457e-06,0,0.5
2014-03-01 18:06:00,3.18633621785e-06,0,0.5
2014-03-01 18:11:00,0.0,0,0.5
2014-03-01 18:16:00,8.54517440242e-06,0,0.5
2014-03-01 18:21:00,3.18633621785e-06,0,0.5
2014-03-01 18:26:00,0.0,0,0.5
2014-03-01 18:31:00,5.35883818457e-06,0,0.5
2014-03-01 18:36:00,0.0,0,0.5
2014-03-01 18:41:00,3.18633621785e-06,0,0.5
2014-03-01 18:46:00,0.0,0,0.5
2014-03-01 18:51:00,7.53134015129e-06,0,0.5
2014-03-01 18:56:00,3.18633621785e-06,0,0.5
2014-03-01 19:01:00,0.0,0,0.5
2014-03-01 19:06:00,7.53134015129e-06,0,0.5
2014-03-01 19:11:00,0.0,0,0.5
2014-03-01 19:16:00,3.18633621785e-06,0,0.5
2014-03-01 19:21:00,3.18633621785e-06,0,0.5
2014-03-01 19:26:00,5.35883818457e-06,0,0.5
2014-03-01 19:31:00,3.18633621785e-06,0,0.5
2014-03-01 19:36:00,0.0,0,0.5
2014-03-01 19:41:00,8.54517440242e-06,0,0.5
2014-03-01 19:46:00,1.31074285325e-05,0,0.5
2014-03-01 19:51:00,0.0,0,0.5
2014-03-01 19:56:00,8.54517440242e-06,0,0.5
2014-03-01 20:01:00,1.01383425113e-06,0,0.5
2014-03-01 20:06:00,3.18633621785e-06,0,0.5
2014-03-01 20:11:00,0.0,0,0.5
2014-03-01 20:16:00,8.54517440242e-06,0,0.5
2014-03-01 20:21:00,3.18633621785e-06,0,0.5
2014-03-01 20:26:00,0.0,0,0.5
2014-03-01 20:31:00,8.54517440242e-06,0,0.5
2014-03-01 20:36:00,0.0,0,0.5
2014-03-01 20:41:00,3.18633621785e-06,0,0.5
2014-03-01 20:46:00,3.18633621785e-06,0,0.5
2014-03-01 20:51:00,4.34500393344e-06,0,0.5
2014-03-01 20:56:00,2.17250196672e-06,0,0.5
2014-03-01 21:01:00,0.0,0,0.5
2014-03-01 21:06:00,8.54517440242e-06,0,0.5
2014-03-01 21:11:00,0.0,0,0.5
2014-03-01 21:16:00,2.17250196672e-06,0,0.5
2014-03-01 21:21:00,3.18633621785e-06,0,0.5
2014-03-01 21:26:00,5.35883818457e-06,0,0.5
2014-03-01 21:31:00,3.18633621785e-06,0,0.5
2014-03-01 21:36:00,0.0,0,0.5
2014-03-01 21:41:00,8.54517440242e-06,0,0.5
2014-03-01 21:46:00,3.18633621785e-06,0,0.5
2014-03-01 21:51:00,0.0,0,0.5
2014-03-01 21:56:00,8.54517440242e-06,0,0.5
2014-03-01 22:01:00,0.0,0,0.5
2014-03-01 22:06:00,3.18633621785e-06,0,0.5
2014-03-01 22:11:00,3.18633621785e-06,0,0.5
2014-03-01 22:16:00,5.35883818457e-06,0,0.5
2014-03-01 22:21:00,3.18633621785e-06,0,0.5
2014-03-01 22:26:00,0.0,0,0.5
2014-03-01 22:31:00,6.37267243571e-06,0,0.5
2014-03-01 22:36:00,0.0,0,0.5
2014-03-01 22:41:00,3.18633621785e-06,0,0.5
2014-03-01 22:46:00,3.18633621785e-06,0,0.5
2014-03-01 22:51:00,5.35883818457e-06,0,0.5
2014-03-01 22:56:00,3.18633621785e-06,0,0.5
2014-03-01 23:01:00,0.0,0,0.5
2014-03-01 23:06:00,7.53134015129e-06,0,0.5
2014-03-01 23:11:00,3.18633621785e-06,0,0.5
2014-03-01 23:16:00,0.0,0,0.5
2014-03-01 23:21:00,8.54517440242e-06,0,0.5
2014-03-01 23:26:00,0.0,0,0.5
2014-03-01 23:31:00,4.20017046899e-06,0,0.5
2014-03-01 23:36:00,0.0,0,0.5
2014-03-01 23:41:00,8.54517440242e-06,0,0.5
2014-03-01 23:46:00,3.18633621785e-06,0,0.5
2014-03-01 23:51:00,0.0,0,0.5
2014-03-01 23:56:00,8.54517440242e-06,0,0.5
2014-03-02 00:01:00,0.0,0,0.5
2014-03-02 00:06:00,3.18633621785e-06,0,0.5
2014-03-02 00:11:00,3.18633621785e-06,0,0.5
2014-03-02 00:16:00,5.35883818457e-06,0,0.5
2014-03-02 00:21:00,3.18633621785e-06,0,0.5
2014-03-02 00:26:00,0.0,0,0.5
2014-03-02 00:31:00,8.54517440242e-06,0,0.5
2014-03-02 00:36:00,0.0,0,0.5
2014-03-02 00:41:00,2.17250196672e-06,0,0.5
2014-03-02 00:46:00,3.18633621785e-06,0,0.5
2014-03-02 00:51:00,5.35883818457e-06,0,0.5
2014-03-02 00:56:00,3.18633621785e-06,0,0.5
2014-03-02 01:01:00,0.0,0,0.5
2014-03-02 01:06:00,8.54517440242e-06,0,0.5
2014-03-02 01:11:00,3.18633621785e-06,0,0.5
2014-03-02 01:16:00,0.0,0,0.5
2014-03-02 01:21:00,8.54517440242e-06,0,0.5
2014-03-02 01:26:00,0.0,0,0.5
2014-03-02 01:31:00,3.18633621785e-06,0,0.5
2014-03-02 01:36:00,3.18633621785e-06,0,0.5
2014-03-02 01:41:00,5.35883818457e-06,0,0.5
2014-03-02 01:46:00,3.18633621785e-06,0,0.5
2014-03-02 01:51:00,0.0,0,0.5
2014-03-02 01:56:00,8.54517440242e-06,0,0.5
2014-03-02 02:01:00,0.0,0,0.5
2014-03-02 02:06:00,3.18633621785e-06,0,0.5
2014-03-02 02:11:00,3.18633621785e-06,0,0.5
2014-03-02 02:16:00,6.37267243571e-06,0,0.5
2014-03-02 02:21:00,3.18633621785e-06,0,0.5
2014-03-02 02:26:00,0.0,0,0.5
2014-03-02 02:31:00,6.37267243571e-06,0,0.5
2014-03-02 02:36:00,3.18633621785e-06,0,0.5
2014-03-02 02:41:00,0.0,0,0.5
2014-03-02 02:46:00,6.37267243571e-06,0,0.5
2014-03-02 02:51:00,0.0,0,0.5
2014-03-02 02:56:00,3.18633621785e-06,0,0.5
2014-03-02 03:01:00,0.0,0,0.5
2014-03-02 03:06:00,7.53134015129e-06,0,0.5
2014-03-02 03:11:00,3.18633621785e-06,0,0.5
2014-03-02 03:16:00,0.0,0,0.5
2014-03-02 03:21:00,8.54517440242e-06,0,0.5
2014-03-02 03:26:00,0.0,0,0.5
2014-03-02 03:31:00,3.18633621785e-06,0,0.5
2014-03-02 03:36:00,3.18633621785e-06,0,0.5
2014-03-02 03:41:00,5.35883818457e-06,0,0.5
2014-03-02 03:46:00,3.18633621785e-06,0,0.5
2014-03-02 03:51:00,0.0,0,0.5
2014-03-02 03:56:00,8.54517440242e-06,0,0.5
2014-03-02 04:01:00,2.17250196672e-06,0,0.5
2014-03-02 04:06:00,1.01383425113e-06,0,0.5
2014-03-02 04:11:00,6.37267243571e-06,0,0.5
2014-03-02 04:16:00,2.17250196672e-06,0,0.5
2014-03-02 04:21:00,3.18633621785e-06,0,0.5
2014-03-02 04:26:00,0.0,0,0.5
2014-03-02 04:31:00,8.54517440242e-06,0,0.5
2014-03-02 04:36:00,2.17250196672e-06,0,0.5
2014-03-02 04:41:00,0.0,0,0.5
2014-03-02 04:46:00,8.54517440242e-06,0,0.5
2014-03-02 04:51:00,0.0,0,0.5
2014-03-02 04:56:00,3.18633621785e-06,0,0.5
2014-03-02 05:01:00,3.18633621785e-06,0,0.5
2014-03-02 05:06:00,5.35883818457e-06,0,0.5
2014-03-02 05:11:00,3.18633621785e-06,0,0.5
2014-03-02 05:16:00,0.0,0,0.5
2014-03-02 05:21:00,8.54517440242e-06,0,0.5
2014-03-02 05:26:00,0.0,0,0.5
2014-03-02 05:31:00,4.20017046899e-06,0,0.5
2014-03-02 05:36:00,3.18633621785e-06,0,0.5
2014-03-02 05:41:00,5.35883818457e-06,0,0.5
2014-03-02 05:46:00,3.18633621785e-06,0,0.5
2014-03-02 05:51:00,0.0,0,0.5
2014-03-02 05:56:00,8.54517440242e-06,0,0.5
2014-03-02 06:01:00,3.18633621785e-06,0,0.5
2014-03-02 06:06:00,0.0,0,0.5
2014-03-02 06:11:00,8.54517440242e-06,0,0.5
2014-03-02 06:16:00,0.0,0,0.5
2014-03-02 06:21:00,3.18633621785e-06,0,0.5
2014-03-02 06:26:00,0.0,0,0.5
2014-03-02 06:31:00,5.35883818457e-06,0,0.5
2014-03-02 06:36:00,3.18633621785e-06,0,0.5
2014-03-02 06:41:00,0.0,0,0.5
2014-03-02 06:46:00,7.53134015129e-06,0,0.5
2014-03-02 06:51:00,0.0,0,0.5
2014-03-02 06:56:00,3.18633621785e-06,0,0.5
2014-03-02 07:01:00,1.31074285325e-05,0,0.5
2014-03-02 07:06:00,5.35883818457e-06,0,0.5
2014-03-02 07:11:00,3.18633621785e-06,0,0.5
2014-03-02 07:16:00,0.0,0,0.5
2014-03-02 07:21:00,8.54517440242e-06,0,0.5
2014-03-02 07:26:00,3.18633621785e-06,0,0.5
2014-03-02 07:31:00,0.0,0,0.5
2014-03-02 07:36:00,6.37267243571e-06,0,0.5
2014-03-02 07:41:00,3.18633621785e-06,0,0.5
2014-03-02 07:46:00,3.18633621785e-06,0,0.5
2014-03-02 07:51:00,0.0,0,0.5
2014-03-02 07:56:00,8.54517440242e-06,0,0.5
2014-03-02 08:01:00,3.18633621785e-06,0,0.5
2014-03-02 08:06:00,0.0,0,0.5
2014-03-02 08:11:00,8.54517440242e-06,0,0.5
2014-03-02 08:16:00,0.0,0,0.5
2014-03-02 08:21:00,2.17250196672e-06,0,0.5
2014-03-02 08:26:00,3.18633621785e-06,0,0.5
2014-03-02 08:31:00,5.35883818457e-06,0,0.5
2014-03-02 08:36:00,3.18633621785e-06,0,0.5
2014-03-02 08:41:00,0.0,0,0.5
2014-03-02 08:46:00,8.54517440242e-06,0,0.5
2014-03-02 08:51:00,0.0,0,0.5
2014-03-02 08:56:00,3.18633621785e-06,0,0.5
2014-03-02 09:01:00,3.18633621785e-06,0,0.5
2014-03-02 09:06:00,5.35883818457e-06,0,0.5
2014-03-02 09:11:00,3.18633621785e-06,0,0.5
2014-03-02 09:16:00,0.0,0,0.5
2014-03-02 09:21:00,8.54517440242e-06,0,0.5
2014-03-02 09:26:00,3.18633621785e-06,0,0.5
2014-03-02 09:31:00,0.0,0,0.5
2014-03-02 09:36:00,9.55900865356e-06,0,0.5
2014-03-02 09:41:00,0.0,0,0.5
2014-03-02 09:46:00,3.18633621785e-06,0,0.5
2014-03-02 09:51:00,0.0,0,0.5
2014-03-02 09:56:00,8.54517440242e-06,0,0.5
2014-03-02 10:01:00,3.18633621785e-06,0,0.5
2014-03-02 10:06:00,0.0,0,0.5
2014-03-02 10:11:00,8.54517440242e-06,0,0.5
2014-03-02 10:16:00,0.0,0,0.5
2014-03-02 10:21:00,3.18633621785e-06,0,0.5
2014-03-02 10:26:00,2.02766850227e-06,0,0.5
2014-03-02 10:31:00,3.18633621785e-06,0,0.5
2014-03-02 10:36:00,3.18633621785e-06,0,0.5
2014-03-02 10:41:00,0.0,0,0.5
2014-03-02 10:46:00,8.54517440242e-06,0,0.5
2014-03-02 10:51:00,3.18633621785e-06,0,0.5
2014-03-02 10:56:00,0.0,0,0.5
2014-03-02 11:01:00,6.37267243571e-06,0,0.5
2014-03-02 11:06:00,2.17250196672e-06,0,0.5
2014-03-02 11:11:00,3.18633621785e-06,0,0.5
2014-03-02 11:16:00,0.0,0,0.5
2014-03-02 11:21:00,8.54517440242e-06,0,0.5
2014-03-02 11:26:00,3.18633621785e-06,0,0.5
2014-03-02 11:31:00,0.0,0,0.5
2014-03-02 11:36:00,8.54517440242e-06,0,0.5
2014-03-02 11:41:00,0.0,0,0.5
2014-03-02 11:46:00,3.18633621785e-06,0,0.5
2014-03-02 11:51:00,3.18633621785e-06,0,0.5
2014-03-02 11:56:00,5.35883818457e-06,0,0.5
2014-03-02 12:01:00,4.20017046899e-06,0,0.5
2014-03-02 12:06:00,0.0,0,0.5
2014-03-02 12:11:00,8.54517440242e-06,0,0.5
2014-03-02 12:16:00,0.0,0,0.5
2014-03-02 12:21:00,2.17250196672e-06,0,0.5
2014-03-02 12:26:00,3.18633621785e-06,0,0.5
2014-03-02 12:31:00,5.35883818457e-06,0,0.5
2014-03-02 12:36:00,3.18633621785e-06,0,0.5
2014-03-02 12:41:00,0.0,0,0.5
2014-03-02 12:46:00,6.37267243571e-06,0,0.5
2014-03-02 12:51:00,3.18633621785e-06,0,0.5
2014-03-02 12:56:00,0.0,0,0.5
2014-03-02 13:01:00,8.54517440242e-06,0,0.5
2014-03-02 13:06:00,0.0,0,0.5
2014-03-02 13:11:00,3.18633621785e-06,0,0.5
2014-03-02 13:16:00,0.0,0,0.5
2014-03-02 13:21:00,7.53134015129e-06,0,0.5
2014-03-02 13:26:00,3.18633621785e-06,0,0.5
2014-03-02 13:31:00,0.0,0,0.5
2014-03-02 13:36:00,8.54517440242e-06,0,0.5
2014-03-02 13:41:00,0.0,0,0.5
2014-03-02 13:46:00,3.18633621785e-06,0,0.5
2014-03-02 13:51:00,3.18633621785e-06,0,0.5
2014-03-02 13:56:00,5.35883818457e-06,0,0.5
2014-03-02 14:01:00,3.18633621785e-06,0,0.5
2014-03-02 14:06:00,0.0,0,0.5
2014-03-02 14:11:00,8.54517440242e-06,0,0.5
2014-03-02 14:16:00,3.18633621785e-06,0,0.5
2014-03-02 14:21:00,0.0,0,0.5
2014-03-02 14:26:00,8.54517440242e-06,0,0.5
2014-03-02 14:31:00,0.0,0,0.5
2014-03-02 14:36:00,3.18633621785e-06,0,0.5
2014-03-02 14:41:00,0.0,0,0.5
2014-03-02 14:46:00,8.54517440242e-06,0,0.5
2014-03-02 14:51:00,3.18633621785e-06,0,0.5
2014-03-02 14:56:00,0.0,0,0.5
2014-03-02 15:01:00,6.37267243571e-06,0,0.5
2014-03-02 15:06:00,0.0,0,0.5
2014-03-02 15:11:00,3.18633621785e-06,0,0.5
2014-03-02 15:16:00,3.18633621785e-06,0,0.5
2014-03-02 15:21:00,5.35883818457e-06,0,0.5
2014-03-02 15:26:00,3.18633621785e-06,0,0.5
2014-03-02 15:31:00,0.0,0,0.5
2014-03-02 15:36:00,8.54517440242e-06,0,0.5
2014-03-02 15:41:00,0.0,0,0.5
2014-03-02 15:46:00,2.17250196672e-06,0,0.5
2014-03-02 15:51:00,3.18633621785e-06,0,0.5
2014-03-02 15:56:00,5.35883818457e-06,0,0.5
2014-03-02 16:01:00,4.20017046899e-06,0,0.5
2014-03-02 16:06:00,0.0,0,0.5
2014-03-02 16:11:00,8.54517440242e-06,0,0.5
2014-03-02 16:16:00,3.18633621785e-06,0,0.5
2014-03-02 16:21:00,0.0,0,0.5
2014-03-02 16:26:00,8.54517440242e-06,0,0.5
2014-03-02 16:31:00,0.0,0,0.5
2014-03-02 16:36:00,3.18633621785e-06,0,0.5
2014-03-02 16:41:00,2.17250196672e-06,0,0.5
2014-03-02 16:46:00,6.37267243571e-06,0,0.5
2014-03-02 16:51:00,3.18633621785e-06,0,0.5
2014-03-02 16:56:00,0.0,0,0.5
2014-03-02 17:01:00,7.53134015129e-06,0,0.5
2014-03-02 17:06:00,0.0,0,0.5
2014-03-02 17:11:00,3.18633621785e-06,0,0.5
2014-03-02 17:16:00,3.18633621785e-06,0,0.5
2014-03-02 17:21:00,5.35883818457e-06,0,0.5
2014-03-02 17:26:00,3.18633621785e-06,0,0.5
2014-03-02 17:31:00,0.0,0,0.5
2014-03-02 17:36:00,1.84662667171e-05,0,0.5
2014-03-02 17:41:00,3.18633621785e-06,0,0.5
2014-03-02 17:46:00,0.0,0,0.5
2014-03-02 17:51:00,8.54517440242e-06,0,0.5
2014-03-02 17:56:00,0.0,0,0.5
2014-03-02 18:01:00,3.18633621785e-06,0,0.5
2014-03-02 18:06:00,0.0,0,0.5
2014-03-02 18:11:00,8.54517440242e-06,0,0.5
2014-03-02 18:16:00,3.18633621785e-06,0,0.5
2014-03-02 18:21:00,1.01383425113e-06,0,0.5
2014-03-02 18:26:00,8.54517440242e-06,0,0.5
2014-03-02 18:31:00,0.0,0,0.5
2014-03-02 18:36:00,3.18633621785e-06,0,0.5
2014-03-02 18:41:00,3.18633621785e-06,0,0.5
2014-03-02 18:46:00,5.35883818457e-06,0,0.5
2014-03-02 18:51:00,3.18633621785e-06,0,0.5
2014-03-02 18:56:00,0.0,0,0.5
2014-03-02 19:01:00,8.54517440242e-06,0,0.5
2014-03-02 19:06:00,2.17250196672e-06,0,0.5
2014-03-02 19:11:00,1.01383425113e-06,0,0.5
2014-03-02 19:16:00,3.18633621785e-06,0,0.5
2014-03-02 19:21:00,3.18633621785e-06,0,0.5
2014-03-02 19:26:00,2.17250196672e-06,0,0.5
2014-03-02 19:31:00,0.0,0,0.5
2014-03-02 19:36:00,8.54517440242e-06,0,0.5
2014-03-02 19:41:00,3.18633621785e-06,0,0.5
2014-03-02 19:46:00,0.0,0,0.5
2014-03-02 19:51:00,6.37267243571e-06,0,0.5
2014-03-02 19:56:00,0.0,0,0.5
2014-03-02 20:01:00,3.18633621785e-06,0,0.5
2014-03-02 20:06:00,3.18633621785e-06,0,0.5
2014-03-02 20:11:00,5.35883818457e-06,0,0.5
2014-03-02 20:16:00,3.18633621785e-06,0,0.5
2014-03-02 20:21:00,0.0,0,0.5
2014-03-02 20:26:00,8.54517440242e-06,0,0.5
2014-03-02 20:31:00,0.0,0,0.5
2014-03-02 20:36:00,3.18633621785e-06,0,0.5
2014-03-02 20:41:00,3.18633621785e-06,0,0.5
2014-03-02 20:46:00,5.35883818457e-06,0,0.5
2014-03-02 20:51:00,3.18633621785e-06,0,0.5
2014-03-02 20:56:00,0.0,0,0.5
2014-03-02 21:01:00,8.54517440242e-06,0,0.5
2014-03-02 21:06:00,3.18633621785e-06,0,0.5
2014-03-02 21:11:00,0.0,0,0.5
2014-03-02 21:16:00,5.35883818457e-06,0,0.5
2014-03-02 21:21:00,1.01383425113e-06,0,0.5
2014-03-02 21:26:00,3.18633621785e-06,0,0.5
2014-03-02 21:31:00,0.0,0,0.5
2014-03-02 21:36:00,8.54517440242e-06,0,0.5
2014-03-02 21:41:00,3.18633621785e-06,0,0.5
2014-03-02 21:46:00,0.0,0,0.5
2014-03-02 21:51:00,8.54517440242e-06,0,0.5
2014-03-02 21:56:00,0.0,0,0.5
2014-03-02 22:01:00,3.18633621785e-06,0,0.5
2014-03-02 22:06:00,3.18633621785e-06,0,0.5
2014-03-02 22:11:00,5.35883818457e-06,0,0.5
2014-03-02 22:16:00,3.18633621785e-06,0,0.5
2014-03-02 22:21:00,0.0,0,0.5
2014-03-02 22:26:00,6.37267243571e-06,0,0.5
2014-03-02 22:31:00,3.18633621785e-06,0,0.5
2014-03-02 22:36:00,0.0,0,0.5
2014-03-02 22:41:00,5.35883818457e-06,0,0.5
2014-03-02 22:46:00,3.18633621785e-06,0,0.5
2014-03-02 22:51:00,3.18633621785e-06,0,0.5
2014-03-02 22:56:00,0.0,0,0.5
2014-03-02 23:01:00,8.54517440242e-06,0,0.5
2014-03-02 23:06:00,3.18633621785e-06,0,0.5
2014-03-02 23:11:00,0.0,0,0.5
2014-03-02 23:16:00,8.54517440242e-06,0,0.5
2014-03-02 23:21:00,0.0,0,0.5
2014-03-02 23:26:00,3.18633621785e-06,0,0.5
2014-03-02 23:31:00,3.18633621785e-06,0,0.5
2014-03-02 23:36:00,5.35883818457e-06,0,0.5
2014-03-02 23:41:00,3.18633621785e-06,0,0.5
2014-03-02 23:46:00,0.0,0,0.5
2014-03-02 23:51:00,8.54517440242e-06,0,0.5
2014-03-02 23:56:00,0.0,0,0.5
2014-03-03 00:01:00,3.18633621785e-06,0,0.5
2014-03-03 00:06:00,3.18633621785e-06,0,0.5
2014-03-03 00:11:00,5.35883818457e-06,0,0.5
2014-03-03 00:16:00,3.18633621785e-06,0,0.5
2014-03-03 00:21:00,0.0,0,0.5
2014-03-03 00:26:00,8.54517440242e-06,0,0.5
2014-03-03 00:31:00,3.18633621785e-06,0,0.5
2014-03-03 00:36:00,0.0,0,0.5
2014-03-03 00:41:00,7.53134015129e-06,0,0.5
2014-03-03 00:46:00,0.0,0,0.5
2014-03-03 00:51:00,3.18633621785e-06,0,0.5
2014-03-03 00:56:00,0.0,0,0.5
2014-03-03 01:01:00,8.54517440242e-06,0,0.5
2014-03-03 01:06:00,3.18633621785e-06,0,0.5
2014-03-03 01:11:00,0.0,0,0.5
2014-03-03 01:16:00,8.54517440242e-06,0,0.5
2014-03-03 01:21:00,0.0,0,0.5
2014-03-03 01:26:00,3.18633621785e-06,0,0.5
2014-03-03 01:31:00,3.18633621785e-06,0,0.5
2014-03-03 01:36:00,5.35883818457e-06,0,0.5
2014-03-03 01:41:00,3.18633621785e-06,0,0.5
2014-03-03 01:46:00,1.01383425113e-06,0,0.5
2014-03-03 01:51:00,8.54517440242e-06,0,0.5
2014-03-03 01:56:00,3.18633621785e-06,0,0.5001994716
2014-03-03 02:01:00,0.0,0,0.5001994716
2014-03-03 02:06:00,8.54517440242e-06,0,0.5001994716
2014-03-03 02:11:00,0.0,0,0.5001994716
2014-03-03 02:16:00,3.18633621785e-06,0,0.5001994716
2014-03-03 02:21:00,0.0,0,0.500199471727
2014-03-03 02:26:00,6.37267243571e-06,0,0.500199471687
2014-03-03 02:31:00,3.18633621785e-06,0,0.500199471687
2014-03-03 02:36:00,0.0,0,0.500199471727
2014-03-03 02:41:00,6.37267243571e-06,0,0.500199471814
2014-03-03 02:46:00,0.0,0,0.500199471941
2014-03-03 02:51:00,3.18633621785e-06,0,0.500199471814
2014-03-03 02:56:00,1.01383425113e-06,0,0.500199472115
2014-03-03 03:01:00,5.35883818457e-06,0,0.500199471901
2014-03-03 03:06:00,2.17250196672e-06,0,0.500199471941
2014-03-03 03:11:00,0.0,0,0.500199471941
2014-03-03 03:16:00,8.54517440242e-06,0,0.500199471855
2014-03-03 03:21:00,0.0,0,0.500199471982
2014-03-03 03:26:00,3.18633621785e-06,0,0.500199471855
2014-03-03 03:31:00,3.18633621785e-06,0,0.500199471982
2014-03-03 03:36:00,1.52799304992e-05,0,0.500199471372
2014-03-03 03:41:00,2.17250196672e-06,0,0.500199471413
2014-03-03 03:46:00,0.0,0,0.500199471453
2014-03-03 03:51:00,8.54517440242e-06,0,0.500199471326
2014-03-03 03:56:00,3.18633621785e-06,0,0.500199471285
2014-03-03 04:01:00,0.0,0,0.500199471285
2014-03-03 04:06:00,8.54517440242e-06,0,0.500199471285
2014-03-03 04:11:00,0.0,0,0.500199471285
2014-03-03 04:16:00,3.18633621785e-06,0,0.500199471285
2014-03-03 04:21:00,2.17250196672e-06,0,0.500199471326
2014-03-03 04:26:00,6.37267243571e-06,0,0.500199471681
2014-03-03 04:31:00,3.18633621785e-06,0,0.500199471641
2014-03-03 04:36:00,0.0,0,0.500199471641
2014-03-03 04:41:00,8.54517440242e-06,0,0.500199471641
2014-03-03 04:46:00,0.0,0,0.500199471768
2014-03-03 04:51:00,3.18633621785e-06,0,0.500199471641
2014-03-03 04:56:00,1.01383425113e-06,0,0.500199471941
2014-03-03 05:01:00,5.35883818457e-06,0,0.500199471727
2014-03-03 05:06:00,3.18633621785e-06,0,0.500199471727
2014-03-03 05:11:00,0.0,0,0.500199471814
2014-03-03 05:16:00,8.54517440242e-06,0,0.500199471727
2014-03-03 05:21:00,3.18633621785e-06,0,0.500199471727
2014-03-03 05:26:00,0.0,0,0.500199471727
2014-03-03 05:31:00,8.54517440242e-06,0,0.500199471727
2014-03-03 05:36:00,0.0,0,0.500199471727
2014-03-03 05:41:00,3.18633621785e-06,0,0.500199471727
2014-03-03 05:46:00,0.0,0,0.500199471768
2014-03-03 05:51:00,8.54517440242e-06,0,0.500199471641
2014-03-03 05:56:00,3.18633621785e-06,0,0.500199471641
2014-03-03 06:01:00,0.0,0,0.500199471641
2014-03-03 06:06:00,8.54517440242e-06,0,0.500199471641
2014-03-03 06:11:00,1.01383425113e-06,0,0.500199471727
2014-03-03 06:16:00,3.18633621785e-06,0,0.5001994716
2014-03-03 06:21:00,3.18633621785e-06,0,0.500199471814
2014-03-03 06:26:00,5.35883818457e-06,0,0.5001994716
2014-03-03 06:31:00,3.18633621785e-06,0,0.5001994716
2014-03-03 06:36:00,0.0,0,0.5001994716
2014-03-03 06:41:00,8.54517440242e-06,0,0.5001994716
2014-03-03 06:46:00,2.17250196672e-06,0,0.500199471641
2014-03-03 06:51:00,1.01383425113e-06,0,0.5001994716
2014-03-03 06:56:00,3.18633621785e-06,0,0.500199471814
2014-03-03 07:01:00,5.35883818457e-06,0,0.500199471641
2014-03-03 07:06:00,3.18633621785e-06,0,0.500199471641
2014-03-03 07:11:00,0.0,0,0.500199471768
2014-03-03 07:16:00,8.54517440242e-06,0,0.500199471641
2014-03-03 07:21:00,3.18633621785e-06,0,0.500199471641
2014-03-03 07:26:00,0.0,0,0.500199471641
2014-03-03 07:31:00,8.54517440242e-06,0,0.500199471641
2014-03-03 07:36:00,0.0,0,0.500199471727
2014-03-03 07:41:00,3.18633621785e-06,0,0.500199471641
2014-03-03 07:46:00,3.18633621785e-06,0,0.500199471641
2014-03-03 07:51:00,5.35883818457e-06,0,0.500199471641
2014-03-03 07:56:00,3.18633621785e-06,0,0.500199471641
2014-03-03 08:01:00,0.0186823099682,0,0.500198726317
2014-03-03 08:06:00,0.0237961382088,0,0.500197777321
2014-03-03 08:11:00,0.0,0,0.500197777448
2014-03-03 08:16:00,3.18633621785e-06,0,0.500197777321
2014-03-03 08:21:00,3.18633621785e-06,0,0.500197777535
2014-03-03 08:26:00,5.35883818457e-06,0,0.500197777321
2014-03-03 08:31:00,3.18633621785e-06,0,0.500197777321
2014-03-03 08:36:00,0.0,0,0.500197777448
2014-03-03 08:41:00,8.54517440242e-06,0,0.500197777321
2014-03-03 08:46:00,3.18633621785e-06,0,0.500197777321
2014-03-03 08:51:00,0.0,0,0.500198522644
2014-03-03 08:56:00,8.54517440242e-06,0,0.500199471641
2014-03-03 09:01:00,0.0,0,0.500199471641
2014-03-03 09:06:00,3.18633621785e-06,0,0.500199471641
2014-03-03 09:11:00,0.0,0,0.500199471768
2014-03-03 09:16:00,8.54517440242e-06,0,0.500199471641
2014-03-03 09:21:00,3.18633621785e-06,0,0.500199471641
2014-03-03 09:26:00,0.0,0,0.500199471641
2014-03-03 09:31:00,8.54517440242e-06,0,0.500199471641
2014-03-03 09:36:00,0.0,0,0.500199471768
2014-03-03 09:41:00,3.18633621785e-06,0,0.500199471641
2014-03-03 09:46:00,1.01383425113e-06,0,0.500199471941
2014-03-03 09:51:00,5.35883818457e-06,0,0.500199471727
2014-03-03 09:56:00,4.20017046899e-06,0,0.500199471687
2014-03-03 10:01:00,0.0,0,0.500199471687
2014-03-03 10:06:00,8.54517440242e-06,0,0.500199471687
2014-03-03 10:11:00,3.18633621785e-06,0,0.500199471687
2014-03-03 10:16:00,0.0,0,0.500199471687
2014-03-03 10:21:00,3.18633621785e-06,0,0.500199471901
2014-03-03 10:26:00,5.35883818457e-06,0,0.500199471687
2014-03-03 10:31:00,3.18633621785e-06,0,0.500199471687
2014-03-03 10:36:00,0.0,0,0.500199471727
2014-03-03 10:41:00,6.37267243571e-06,0,0.500199471687
2014-03-03 10:46:00,2.17250196672e-06,0,0.500199471768
2014-03-03 10:51:00,0.0,0,0.500199471768
2014-03-03 10:56:00,6.37267243571e-06,0,0.500199471855
2014-03-03 11:01:00,0.0,0,0.500199471982
2014-03-03 11:06:00,3.18633621785e-06,0,0.500199471855
2014-03-03 11:11:00,1.01383425113e-06,0,0.500199471941
2014-03-03 11:16:00,5.35883818457e-06,0,0.500199471941
2014-03-03 11:21:00,3.18633621785e-06,0,0.500199471941
2014-03-03 11:26:00,0.0,0,0.500199471941
2014-03-03 11:31:00,6.37267243571e-06,0,0.500199471941
2014-03-03 11:36:00,0.0,0,0.500199472028
2014-03-03 11:41:00,4.20017046899e-06,0,0.50019947186
2014-03-03 11:46:00,3.18633621785e-06,0,0.500199471987
2014-03-03 11:51:00,5.35883818457e-06,0,0.500199471774
2014-03-03 11:56:00,3.18633621785e-06,0,0.500199471774
2014-03-03 12:01:00,0.0,0,0.500199471814
2014-03-03 12:06:00,8.54517440242e-06,0,0.500199471687
2014-03-03 12:11:00,3.18633621785e-06,0,0.500199471687
2014-03-03 12:16:00,0.0,0,0.500199471687
2014-03-03 12:21:00,7.53134015129e-06,0,0.500199471641
2014-03-03 12:26:00,0.0,0,0.500199471641
2014-03-03 12:31:00,3.18633621785e-06,0,0.500199471681
2014-03-03 12:36:00,0.0,0,0.500199471808
2014-03-03 12:41:00,8.54517440242e-06,0,0.500199471681
2014-03-03 12:46:00,3.18633621785e-06,0,0.500199471681
2014-03-03 12:51:00,0.0,0,0.500199471681
2014-03-03 12:56:00,8.54517440242e-06,0,0.500199471681
2014-03-03 13:01:00,0.0,0,0.500199471808
2014-03-03 13:06:00,3.18633621785e-06,0,0.500199471681
2014-03-03 13:11:00,3.18633621785e-06,0,0.500199471855
2014-03-03 13:16:00,6.37267243571e-06,0,0.5001994716
2014-03-03 13:21:00,3.18633621785e-06,0,0.5001994716
2014-03-03 13:26:00,0.0,0,0.5001994716
2014-03-03 13:31:00,8.54517440242e-06,0,0.5001994716
2014-03-03 13:36:00,3.18633621785e-06,0,0.5001994716
2014-03-03 13:41:00,0.0,0,0.5001994716
2014-03-03 13:46:00,5.35883818457e-06,0,0.500199471727
2014-03-03 13:51:00,3.18633621785e-06,0,0.5001994716
2014-03-03 13:56:00,3.18633621785e-06,0,0.5001994716
2014-03-03 14:01:00,0.0,0,0.500199471727
2014-03-03 14:06:00,8.54517440242e-06,0,0.500199471641
2014-03-03 14:11:00,3.18633621785e-06,0,0.500199471641
2014-03-03 14:16:00,0.0,0,0.500199471641
2014-03-03 14:21:00,8.54517440242e-06,0,0.500199471641
2014-03-03 14:26:00,0.0,0,0.500199471768
2014-03-03 14:31:00,3.18633621785e-06,0,0.500199471641
2014-03-03 14:36:00,3.18633621785e-06,0,0.500199471727
2014-03-03 14:41:00,5.35883818457e-06,0,0.500199471641
2014-03-03 14:46:00,3.18633621785e-06,0,0.500199471641
2014-03-03 14:51:00,0.0,0,0.500199471641
2014-03-03 14:56:00,8.54517440242e-06,0,0.500199471641
2014-03-03 15:01:00,9.92109231468e-06,0,0.500199471372
2014-03-03 15:06:00,3.18633621785e-06,0,0.500199471245
2014-03-03 15:11:00,3.18633621785e-06,0,0.500199471459
2014-03-03 15:16:00,5.35883818457e-06,0,0.500199471245
2014-03-03 15:21:00,3.18633621785e-06,0,0.500199471245
2014-03-03 15:26:00,0.0,0,0.500199471372
2014-03-03 15:31:00,8.54517440242e-06,0,0.500199471245
2014-03-03 15:36:00,3.18633621785e-06,0,0.500199471245
2014-03-03 15:41:00,0.0,0,0.500199471245
2014-03-03 15:46:00,9.55900865356e-06,0,0.500199471205
2014-03-03 15:51:00,0.0,0,0.5001994716
2014-03-03 15:56:00,3.18633621785e-06,0,0.5001994716
2014-03-03 16:01:00,0.0,0,0.500199471727
2014-03-03 16:06:00,7.53134015129e-06,0,0.500199471641
2014-03-03 16:11:00,3.18633621785e-06,0,0.500199471641
2014-03-03 16:16:00,0.0,0,0.500199471641
2014-03-03 16:21:00,8.54517440242e-06,0,0.500199471641
2014-03-03 16:26:00,0.0,0,0.500199471768
2014-03-03 16:31:00,3.18633621785e-06,0,0.500199471641
2014-03-03 16:36:00,3.18633621785e-06,0,0.500199471895
2014-03-03 16:41:00,5.35883818457e-06,0,0.500199471681
2014-03-03 16:46:00,3.18633621785e-06,0,0.500199471681
2014-03-03 16:51:00,0.0,0,0.500199471681
2014-03-03 16:56:00,8.54517440242e-06,0,0.500199471641
2014-03-03 17:01:00,3.18633621785e-06,0,0.500199471641
2014-03-03 17:06:00,0.0,0,0.500199471641
2014-03-03 17:11:00,6.37267243571e-06,0,0.500199471727
2014-03-03 17:16:00,0.00176950285189,0,0.500199401134
2014-03-03 17:21:00,0.631810401408,0,0.500174195434
2014-03-03 17:26:00,0.00115543310154,0,0.500174149465
2014-03-03 17:31:00,0.0789195133885,0,0.500171001216
2014-03-03 17:36:00,3.18633621785e-06,0,0.500171001216
2014-03-03 17:41:00,0.0,0,0.500171001216
2014-03-03 17:46:00,8.54517440242e-06,0,0.500171001216
2014-03-03 17:51:00,0.0,0,0.500171001343
2014-03-03 17:56:00,3.18633621785e-06,0,0.500171001216
2014-03-03 18:01:00,3.18633621785e-06,0,0.500171001343
2014-03-03 18:06:00,5.35883818457e-06,0,0.500171071723
2014-03-03 18:11:00,9.88488394857e-05,0,0.500196273607
2014-03-03 18:16:00,0.0,0,0.500196319702
2014-03-03 18:21:00,6.37267243571e-06,0,0.500199467911
2014-03-03 18:26:00,0.0,0,0.500199468038
2014-03-03 18:31:00,3.18633621785e-06,0,0.500199467911
2014-03-03 18:36:00,3.18633621785e-06,0,0.500199468125
2014-03-03 18:41:00,0.00165843972357,0,0.500199401962
2014-03-03 18:46:00,0.631550908118,0,0.500174206614
2014-03-03 18:51:00,0.000926982450288,0,0.50017416976
2014-03-03 18:56:00,0.0717717405289,0,0.500171306668
2014-03-03 19:01:00,2.17250196672e-06,0,0.500171310525
2014-03-03 19:06:00,0.0,0,0.500171310525
2014-03-03 19:11:00,8.54517440242e-06,0,0.500171310438
2014-03-03 19:16:00,0.0,0,0.500171310438
2014-03-03 19:21:00,3.18633621785e-06,0,0.500171310438
2014-03-03 19:26:00,3.18633621785e-06,0,0.500171310438
2014-03-03 19:31:00,6.37267243571e-06,0,0.500171376347
2014-03-03 19:36:00,3.18633621785e-06,0,0.905270845422
2014-03-03 19:41:00,0.0,0,0.906170362539
2014-03-03 19:46:00,0.00192309874094,0,0.957357385814
2014-03-03 19:51:00,0.626280176958,0,0.970956580292
2014-03-03 19:56:00,0.00586599669925,0,0.973128960743
2014-03-03 20:01:00,0.00111652117743,0,0.973523659937
2014-03-03 20:06:00,0.0736916287947,0,0.990881469526
2014-03-03 20:11:00,3.18633621785e-06,0,0.990881469526
2014-03-03 20:16:00,0.0,0,0.99088101721
2014-03-03 20:21:00,8.54517440242e-06,0,0.990881325609
2014-03-03 20:26:00,3.18633621785e-06,0,0.990881325609
2014-03-03 20:31:00,0.00163910445607,0,0.991111419678
2014-03-03 20:36:00,0.631112786888,0,0.999999999031
2014-03-03 20:41:00,0.00116504038802,0,0.991661484898
2014-03-03 20:46:00,0.0825401086106,0,0.997718981318
2014-03-03 20:51:00,0.0443183159537,0,0.998985186038
2014-03-03 20:56:00,8.54517440242e-06,0,0.996098169736
2014-03-03 21:01:00,0.0445266347534,0,0.998235793913
2014-03-03 21:06:00,0.0,0,0.998235793913
2014-03-03 21:11:00,9.55900865356e-06,0,0.998235827026
2014-03-03 21:16:00,0.0,0,0.998235722956
2014-03-03 21:21:00,9.68211709834e-05,0,0.998184689309
2014-03-03 21:26:00,3.18633621785e-06,0,0.768878202728
2014-03-03 21:31:00,5.35883818457e-06,0,0.770911786454
2014-03-03 21:36:00,3.18633621785e-06,0,0.888461087209
2014-03-03 21:41:00,0.0,0,0.929794071382
2014-03-03 21:46:00,0.0016697367338,0,0.928494248471
2014-03-03 21:51:00,0.633090970623,0,0.973409133004
2014-03-03 21:56:00,4.92433779123e-06,0,0.973410882648
2014-03-03 22:01:00,0.0180700264973,0,0.979212223984
2014-03-03 22:06:00,0.0570400046926,0,0.991035172972
2014-03-03 22:11:00,3.18633621785e-06,0,0.991022069363
2014-03-03 22:16:00,0.0,0,0.99102162316
2014-03-03 22:21:00,8.54517440242e-06,0,0.991022069363
2014-03-03 22:26:00,2.17250196672e-06,0,0.991021927392
2014-03-03 22:31:00,0.0,0,0.991021927392
2014-03-03 22:36:00,8.54517440242e-06,0,0.990786645627
2014-03-03 22:41:00,0.0,0,0.902900524306
2014-03-03 22:46:00,3.18633621785e-06,0,0.902902247783
2014-03-03 22:51:00,3.18633621785e-06,0,0.919628527828
2014-03-03 22:56:00,6.37267243571e-06,0,0.95835112974
2014-03-03 23:01:00,3.18633621785e-06,0,0.95835112974
2014-03-03 23:06:00,0.0,0,0.95835112974
2014-03-03 23:11:00,8.54517440242e-06,0,0.95835112974
2014-03-03 23:16:00,0.0,0,0.958352246623
2014-03-03 23:21:00,3.18633621785e-06,0,0.958350608519
2014-03-03 23:26:00,0.00173930507455,0,0.957453077367
2014-03-03 23:31:00,0.633078901168,0,0.973397423347
2014-03-03 23:36:00,0.000967680653798,0,0.973738408563
2014-03-03 23:41:00,0.0758099389068,0,0.99126100844
2014-03-03 23:46:00,8.54517440242e-06,0,0.991261305551
2014-03-03 23:51:00,3.18633621785e-06,0,0.991261305551
2014-03-03 23:56:00,0.0,0,0.991261305551
2014-03-04 00:01:00,8.54517440242e-06,0,0.991261305551
2014-03-04 00:06:00,0.0016389596226,0,0.9914829411
2014-03-04 00:11:00,0.629506342378,0,0.99999999913
2014-03-04 00:16:00,0.00343250482959,0,0.999
2014-03-04 00:21:00,0.0182175152419,0,0.993436063162
2014-03-04 00:26:00,0.0581642744604,0,0.997526841596
2014-03-04 00:31:00,0.0,0,0.99117347605
2014-03-04 00:36:00,5.35883818457e-06,0,0.991173036447
2014-03-04 00:41:00,0.0,0,0.991172596826
2014-03-04 00:46:00,4.20017046899e-06,0,0.991173176323
2014-03-04 00:51:00,3.18633621785e-06,0,0.991172436959
2014-03-04 00:56:00,0.00182719484856,0,0.99119837545
2014-03-04 01:01:00,0.633281668018,0,0.991704685567
2014-03-04 01:06:00,0.00113472191613,0,0.991399668338
2014-03-04 01:11:00,0.0737117847852,0,0.996561986473
2014-03-04 01:16:00,3.18633621785e-06,0,0.991033366691
2014-03-04 01:21:00,0.0,0,0.991033366691
2014-03-04 01:26:00,6.37267243571e-06,0,0.991033508504
2014-03-04 01:31:00,2.17250196672e-06,0,0.991033812382
2014-03-04 01:36:00,3.18633621785e-06,0,0.991033670573
2014-03-04 01:41:00,0.0,0,0.991033224876