timestamp,value,is_anomaly,anomaly_score,S(t)_reward_low_FP_rate,S(t)_reward_low_FN_rate,S(t)_standard,predicted_anomaly
2014-03-01 17:34:00,0.0,0,0.5,0.0,0.0,0.0,0
2014-03-01 17:39:00,0.0,0,0.5,0.0,0.0,0.0,0
2014-03-01 17:44:00,0.0,0,0.5,0.0,0.0,0.0,0
2014-03-01 17:49:00,0.0,0,0.5,0.0,0.0,0.0,0
2014-03-01 17:54:00,0.0,0,0.5,0.0,0.0,0.0,0
2014-03-01 17:59:00,0.0,0,0.5,0.0,0.0,0.0,0
2014-03-01 18:04:00,0.0,0,0.5,0.0,0.0,0.0,0
2014-03-01 18:09:00,0.0,0,0.5,0.0,0.0,0.0,0
2014-03-01 18:14:00,0.0,0,0.5,0.0,0.0,0.0,0
2014-03-01 18:19:00,0.0,0,0.5,0.0,0.0,0.0,0
2014-03-01 18:24:00,0.0,0,0.5,0.0,0.0,0.0,0
2014-03-01 18:29:00,0.0,0,0.5,0.0,0.0,0.0,0
2014-03-01 18:34:00,0.0,0,0.5,0.0,0.0,0.0,0
2014-03-01 18:39:00,0.0,0,0.5,0.0,0.0,0.0,0
2014-03-01 18:44:00,0.0,0,0.5,0.0,0.0,0.0,0
2014-03-01 18:49:00,0.0,0,0.5,0.0,0.0,0.0,0
2014-03-01 18:54:00,0.0,0,0.5,0.0,0.0,0.0,0
2014-03-01 18:59:00,0.0,0,0.5,0.0,0.0,0.0,0
2014-03-01 19:04:00,0.0,0,0.5,0.0,0.0,0.0,0
2014-03-01 19:09:00,0.0,0,0.5,0.0,0.0,0.0,0
2014-03-01 19:14:00,0.0,0,0.5,0.0,0.0,0.0,0
2014-03-01 19:19:00,0.0,0,0.5,0.0,0.0,0.0,0
2014-03-01 19:24:00,0.0,0,0.5,0.0,0.0,0.0,0
2014-03-01 19:29:00,0.0,0,0.5,0.0,0.0,0.0,0
2014-03-01 19:34:00,0.0,0,0.5,0.0,0.0,0.0,0
2014-03-01 19:39:00,0.0,0,0.5,0.0,0.0,0.0,0
2014-03-01 19:44:00,0.0,0,0.5,0.0,0.0,0.0,0
2014-03-01 19:49:00,0.0,0,0.5,0.0,0.0,0.0,0
2014-03-01 19:54:00,0.0,0,0.5,0.0,0.0,0.0,0
2014-03-01 19:59:00,0.0,0,0.5,0.0,0.0,0.0,0
2014-03-01 20:04:00,0.0,0,0.5,0.0,0.0,0.0,0
2014-03-01 20:09:00,0.0,0,0.5,0.0,0.0,0.0,0
2014-03-01 20:14:00,0.0,0,0.5,0.0,0.0,0.0,0
2014-03-01 20:19:00,0.0,0,0.5,0.0,0.0,0.0,0
2014-03-01 20:24:00,0.0,0,0.5,0.0,0.0,0.0,0
2014-03-01 20:29:00,0.0,0,0.5,0.0,0.0,0.0,0
2014-03-01 20:34:00,0.0,0,0.5,0.0,0.0,0.0,0
2014-03-01 20:39:00,0.0,0,0.5,0.0,0.0,0.0,0
2014-03-01 20:44:00,0.0,0,0.5,0.0,0.0,0.0,0
2014-03-01 20:49:00,0.0,0,0.5,0.0,0.0,0.0,0
2014-03-01 20:54:00,0.0,0,0.5,0.0,0.0,0.0,0
2014-03-01 20:59:00,0.0,0,0.5,0.0,0.0,0.0,0
2014-03-01 21:04:00,0.0,0,0.5,0.0,0.0,0.0,0
2014-03-01 21:09:00,0.0,0,0.5,0.0,0.0,0.0,0
2014-03-01 21:14:00,0.0,0,0.5,0.0,0.0,0.0,0
2014-03-01 21:19:00,0.0,0,0.5,0.0,0.0,0.0,0
2014-03-01 21:24:00,0.0,0,0.5,0.0,0.0,0.0,0
2014-03-01 21:29:00,0.0,0,0.5,0.0,0.0,0.0,0
2014-03-01 21:34:00,0.0,0,0.5,0.0,0.0,0.0,0
2014-03-01 21:39:00,0.0,0,0.5,0.0,0.0,0.0,0
2014-03-01 21:44:00,0.0,0,0.5,0.0,0.0,0.0,0
2014-03-01 21:49:00,0.0,0,0.5,0.0,0.0,0.0,0
2014-03-01 21:54:00,0.0,0,0.5,0.0,0.0,0.0,0
2014-03-01 21:59:00,0.0,0,0.5,0.0,0.0,0.0,0
2014-03-01 22:04:00,0.0,0,0.5,0.0,0.0,0.0,0
2014-03-01 22:09:00,0.0,0,0.5,0.0,0.0,0.0,0
2014-03-01 22:14:00,0.0,0,0.5,0.0,0.0,0.0,0
2014-03-01 22:19:00,0.0,0,0.5,0.0,0.0,0.0,0
2014-03-01 22:24:00,0.0,0,0.5,0.0,0.0,0.0,0
2014-03-01 22:29:00,0.0,0,0.5,0.0,0.0,0.0,0
2014-03-01 22:34:00,0.0,0,0.5,0.0,0.0,0.0,0
2014-03-01 22:39:00,0.0,0,0.5,0.0,0.0,0.0,0
2014-03-01 22:44:00,0.0,0,0.5,0.0,0.0,0.0,0
2014-03-01 22:49:00,0.0,0,0.5,0.0,0.0,0.0,0
2014-03-01 22:54:00,0.0,0,0.5,0.0,0.0,0.0,0
2014-03-01 22:59:00,0.0,0,0.5,0.0,0.0,0.0,0
2014-03-01 23:04:00,0.0,0,0.5,0.0,0.0,0.0,0
2014-03-01 23:09:00,0.0,0,0.5,0.0,0.0,0.0,0
2014-03-01 23:14:00,0.0,0,0.5,0.0,0.0,0.0,0
2014-03-01 23:19:00,0.0,0,0.5,0.0,0.0,0.0,0
2014-03-01 23:24:00,0.0,0,0.5,0.0,0.0,0.0,0
2014-03-01 23:29:00,0.0,0,0.5,0.0,0.0,0.0,0
2014-03-01 23:34:00,0.0,0,0.5,0.0,0.0,0.0,0
2014-03-01 23:39:00,0.0,0,0.5,0.0,0.0,0.0,0
2014-03-01 23:44:00,0.0,0,0.5,0.0,0.0,0.0,0
2014-03-01 23:49:00,0.0,0,0.5,0.0,0.0,0.0,0
2014-03-01 23:54:00,0.0,0,0.5,0.0,0.0,0.0,0
2014-03-01 23:59:00,0.0,0,0.5,0.0,0.0,0.0,0
2014-03-02 00:04:00,0.0,0,0.5,0.0,0.0,0.0,0
2014-03-02 00:09:00,0.0,0,0.5,0.0,0.0,0.0,0
2014-03-02 00:14:00,0.0,0,0.5,0.0,0.0,0.0,0
2014-03-02 00:19:00,0.0,0,0.5,0.0,0.0,0.0,0
2014-03-02 00:24:00,0.0,0,0.5,0.0,0.0,0.0,0
2014-03-02 00:29:00,0.0,0,0.5,0.0,0.0,0.0,0
2014-03-02 00:34:00,0.0,0,0.5,0.0,0.0,0.0,0
2014-03-02 00:39:00,0.0,0,0.5,0.0,0.0,0.0,0
2014-03-02 00:44:00,0.0,0,0.5,0.0,0.0,0.0,0
2014-03-02 00:49:00,0.0,0,0.5,0.0,0.0,0.0,0
2014-03-02 00:54:00,0.0,0,0.5,0.0,0.0,0.0,0
2014-03-02 00:59:00,0.0,0,0.5,0.0,0.0,0.0,0
2014-03-02 01:04:00,0.0,0,0.5,0.0,0.0,0.0,0
2014-03-02 01:09:00,0.0,0,0.5,0.0,0.0,0.0,0
2014-03-02 01:14:00,0.0,0,0.5,0.0,0.0,0.0,0
2014-03-02 01:19:00,0.0,0,0.5,0.0,0.0,0.0,0
2014-03-02 01:24:00,0.0,0,0.5,0.0,0.0,0.0,0
2014-03-02 01:29:00,0.0,0,0.5,0.0,0.0,0.0,0
2014-03-02 01:34:00,0.0,0,0.5,0.0,0.0,0.0,0
2014-03-02 01:39:00,0.0,0,0.5,0.0,0.0,0.0,0
2014-03-02 01:44:00,0.0,0,0.5,0.0,0.0,0.0,0
2014-03-02 01:49:00,0.0,0,0.5,0.0,0.0,0.0,0
2014-03-02 01:54:00,0.0,0,0.5,0.0,0.0,0.0,0
2014-03-02 01:59:00,0.0,0,0.5,0.0,0.0,0.0,0
2014-03-02 02:04:00,0.0,0,0.5,0.0,0.0,0.0,0
2014-03-02 02:09:00,0.0,0,0.5,0.0,0.0,0.0,0
2014-03-02 02:14:00,0.0,0,0.5,0.0,0.0,0.0,0
2014-03-02 02:19:00,0.0,0,0.5,0.0,0.0,0.0,0
2014-03-02 02:24:00,0.0,0,0.5,0.0,0.0,0.0,0
2014-03-02 02:29:00,0.0,0,0.5,0.0,0.0,0.0,0
2014-03-02 02:34:00,0.0,0,0.5,0.0,0.0,0.0,0
2014-03-02 02:39:00,0.0,0,0.5,0.0,0.0,0.0,0
2014-03-02 02:44:00,0.0,0,0.5,0.0,0.0,0.0,0
2014-03-02 02:49:00,0.0,0,0.5,0.0,0.0,0.0,0
2014-03-02 02:54:00,0.0,0,0.5,0.0,0.0,0.0,0
2014-03-02 02:59:00,0.0,0,0.5,0.0,0.0,0.0,0
2014-03-02 03:04:00,0.0,0,0.5,0.0,0.0,0.0,0
2014-03-02 03:09:00,0.0,0,0.5,0.0,0.0,0.0,0
2014-03-02 03:14:00,0.0,0,0.5,0.0,0.0,0.0,0
2014-03-02 03:19:00,0.0,0,0.5,0.0,0.0,0.0,0
2014-03-02 03:24:00,0.0,0,0.5,0.0,0.0,0.0,0
2014-03-02 03:29:00,0.0,0,0.5,0.0,0.0,0.0,0
2014-03-02 03:34:00,0.0,0,0.5,0.0,0.0,0.0,0
2014-03-02 03:39:00,0.0,0,0.5,0.0,0.0,0.0,0
2014-03-02 03:44:00,0.0,0,0.5,0.0,0.0,0.0,0
2014-03-02 03:49:00,0.0,0,0.5,0.0,0.0,0.0,0
2014-03-02 03:54:00,0.0,0,0.5,0.0,0.0,0.0,0
2014-03-02 03:59:00,0.0,0,0.5,0.0,0.0,0.0,0
2014-03-02 04:04:00,0.0,0,0.5,0.0,0.0,0.0,0
2014-03-02 04:09:00,0.0,0,0.5,0.0,0.0,0.0,0
2014-03-02 04:14:00,0.0,0,0.5,0.0,0.0,0.0,0
2014-03-02 04:19:00,0.0,0,0.5,0.0,0.0,0.0,0
2014-03-02 04:24:00,0.0,0,0.5,0.0,0.0,0.0,0
2014-03-02 04:29:00,0.0,0,0.5,0.0,0.0,0.0,0
2014-03-02 04:34:00,0.0,0,0.5,0.0,0.0,0.0,0
2014-03-02 04:39:00,0.0,0,0.5,0.0,0.0,0.0,0
2014-03-02 04:44:00,0.0,0,0.5,0.0,0.0,0.0,0
2014-03-02 04:49:00,0.0,0,0.5,0.0,0.0,0.0,0
2014-03-02 04:54:00,0.0,0,0.5,0.0,0.0,0.0,0
2014-03-02 04:59:00,0.0,0,0.5,0.0,0.0,0.0,0
2014-03-02 05:04:00,0.0,0,0.5,0.0,0.0,0.0,0
2014-03-02 05:09:00,0.0,0,0.5,0.0,0.0,0.0,0
2014-03-02 05:14:00,0.0,0,0.5,0.0,0.0,0.0,0
2014-03-02 05:19:00,0.0,0,0.5,0.0,0.0,0.0,0
2014-03-02 05:24:00,0.0,0,0.5,0.0,0.0,0.0,0
2014-03-02 05:29:00,0.0,0,0.5,0.0,0.0,0.0,0
2014-03-02 05:34:00,0.0,0,0.5,0.0,0.0,0.0,0
2014-03-02 05:39:00,0.0,0,0.5,0.0,0.0,0.0,0
2014-03-02 05:44:00,0.0,0,0.5,0.0,0.0,0.0,0
2014-03-02 05:49:00,0.0,0,0.5,0.0,0.0,0.0,0
2014-03-02 05:54:00,0.0,0,0.5,0.0,0.0,0.0,0
2014-03-02 05:59:00,0.0,0,0.5,0.0,0.0,0.0,0
2014-03-02 06:04:00,0.0,0,0.5,0.0,0.0,0.0,0
2014-03-02 06:09:00,0.0,0,0.5,0.0,0.0,0.0,0
2014-03-02 06:14:00,0.0,0,0.5,0.0,0.0,0.0,0
2014-03-02 06:19:00,0.0,0,0.5,0.0,0.0,0.0,0
2014-03-02 06:24:00,0.0,0,0.5,0.0,0.0,0.0,0
2014-03-02 06:29:00,0.0,0,0.5,0.0,0.0,0.0,0
2014-03-02 06:34:00,0.0,0,0.5,0.0,0.0,0.0,0
2014-03-02 06:39:00,0.0,0,0.5,0.0,0.0,0.0,0
2014-03-02 06:44:00,0.0,0,0.5,0.0,0.0,0.0,0
2014-03-02 06:49:00,0.0,0,0.5,0.0,0.0,0.0,0
2014-03-02 06:54:00,0.0,0,0.5,0.0,0.0,0.0,0
2014-03-02 06:59:00,0.0,0,0.5,0.0,0.0,0.0,0
2014-03-02 07:04:00,0.0,0,0.5,0.0,0.0,0.0,0
2014-03-02 07:09:00,0.0,0,0.5,0.0,0.0,0.0,0
2014-03-02 07:14:00,0.0,0,0.5,0.0,0.0,0.0,0
2014-03-02 07:19:00,0.0,0,0.5,0.0,0.0,0.0,0
2014-03-02 07:24:00,0.0,0,0.5,0.0,0.0,0.0,0
2014-03-02 07:29:00,0.0,0,0.5,0.0,0.0,0.0,0
2014-03-02 07:34:00,0.0,0,0.5,0.0,0.0,0.0,0
2014-03-02 07:39:00,0.0,0,0.5,0.0,0.0,0.0,0
2014-03-02 07:44:00,0.0,0,0.5,0.0,0.0,0.0,0
2014-03-02 07:49:00,0.0,0,0.5,0.0,0.0,0.0,0
2014-03-02 07:54:00,0.0,0,0.5,0.0,0.0,0.0,0
2014-03-02 07:59:00,0.0,0,0.5,0.0,0.0,0.0,0
2014-03-02 08:04:00,0.0,0,0.5,0.0,0.0,0.0,0
2014-03-02 08:09:00,0.0,0,0.5,0.0,0.0,0.0,0
2014-03-02 08:14:00,0.0,0,0.5,0.0,0.0,0.0,0
2014-03-02 08:19:00,0.0,0,0.5,0.0,0.0,0.0,0
2014-03-02 08:24:00,0.0,0,0.5,0.0,0.0,0.0,0
2014-03-02 08:29:00,0.0,0,0.5,0.0,0.0,0.0,0
2014-03-02 08:34:00,0.0,0,0.5,0.0,0.0,0.0,0
2014-03-02 08:39:00,0.0,0,0.5,0.0,0.0,0.0,0
2014-03-02 08:44:00,0.0,0,0.5,0.0,0.0,0.0,0
2014-03-02 08:49:00,0.0,0,0.5,0.0,0.0,0.0,0
2014-03-02 08:54:00,0.0,0,0.5,0.0,0.0,0.0,0
2014-03-02 08:59:00,0.0,0,0.5,0.0,0.0,0.0,0
2014-03-02 09:04:00,0.0,0,0.5,0.0,0.0,0.0,0
2014-03-02 09:09:00,0.0,0,0.5,0.0,0.0,0.0,0
2014-03-02 09:14:00,0.0,0,0.5,0.0,0.0,0.0,0
2014-03-02 09:19:00,0.0,0,0.5,0.0,0.0,0.0,0
2014-03-02 09:24:00,0.0,0,0.5,0.0,0.0,0.0,0
2014-03-02 09:29:00,0.0,0,0.5,0.0,0.0,0.0,0
2014-03-02 09:34:00,0.0,0,0.5,0.0,0.0,0.0,0
2014-03-02 09:39:00,0.0,0,0.5,0.0,0.0,0.0,0
2014-03-02 09:44:00,0.0,0,0.5,0.0,0.0,0.0,0
2014-03-02 09:49:00,0.0,0,0.5,0.0,0.0,0.0,0
2014-03-02 09:54:00,0.0,0,0.5,0.0,0.0,0.0,0
2014-03-02 09:59:00,0.0,0,0.5,0.0,0.0,0.0,0
2014-03-02 10:04:00,0.0,0,0.5,0.0,0.0,0.0,0
2014-03-02 10:09:00,0.0,0,0.5,0.0,0.0,0.0,0
2014-03-02 10:14:00,0.0,0,0.5,0.0,0.0,0.0,0
2014-03-02 10:19:00,0.0,0,0.5,0.0,0.0,0.0,0
2014-03-02 10:24:00,0.0,0,0.5,0.0,0.0,0.0,0
2014-03-02 10:29:00,0.0,0,0.5,0.0,0.0,0.0,0
2014-03-02 10:34:00,0.0,0,0.5,0.0,0.0,0.0,0
2014-03-02 10:39:00,0.0,0,0.5,0.0,0.0,0.0,0
2014-03-02 10:44:00,0.0,0,0.5,0.0,0.0,0.0,0
2014-03-02 10:49:00,0.0,0,0.5,0.0,0.0,0.0,0
2014-03-02 10:54:00,0.0,0,0.5,0.0,0.0,0.0,0
2014-03-02 10:59:00,0.0,0,0.5,0.0,0.0,0.0,0
2014-03-02 11:04:00,0.0,0,0.5,0.0,0.0,0.0,0
2014-03-02 11:09:00,0.0,0,0.5,0.0,0.0,0.0,0
2014-03-02 11:14:00,0.0,0,0.5,0.0,0.0,0.0,0
2014-03-02 11:19:00,0.0,0,0.5,0.0,0.0,0.0,0
2014-03-02 11:24:00,0.0,0,0.5,0.0,0.0,0.0,0
2014-03-02 11:29:00,0.0,0,0.5,0.0,0.0,0.0,0
2014-03-02 11:34:00,0.0,0,0.5,0.0,0.0,0.0,0
2014-03-02 11:39:00,0.0,0,0.5,0.0,0.0,0.0,0
2014-03-02 11:44:00,0.0,0,0.5,0.0,0.0,0.0,0
2014-03-02 11:49:00,0.0,0,0.5,0.0,0.0,0.0,0
2014-03-02 11:54:00,0.0,0,0.5,0.0,0.0,0.0,0
2014-03-02 11:59:00,0.0,0,0.5,0.0,0.0,0.0,0
2014-03-02 12:04:00,0.0,0,0.5,0.0,0.0,0.0,0
2014-03-02 12:09:00,0.0,0,0.5,0.0,0.0,0.0,0
2014-03-02 12:14:00,0.0,0,0.5,0.0,0.0,0.0,0
2014-03-02 12:19:00,0.0,0,0.5,0.0,0.0,0.0,0
2014-03-02 12:24:00,0.0,0,0.5,0.0,0.0,0.0,0
2014-03-02 12:29:00,0.0,0,0.5,0.0,0.0,0.0,0
2014-03-02 12:34:00,0.0,0,0.5,0.0,0.0,0.0,0
2014-03-02 12:39:00,0.0,0,0.5,0.0,0.0,0.0,0
2014-03-02 12:44:00,0.0,0,0.5,0.0,0.0,0.0,0
2014-03-02 12:49:00,0.0,0,0.5,0.0,0.0,0.0,0
2014-03-02 12:54:00,0.0,0,0.5,0.0,0.0,0.0,0
2014-03-02 12:59:00,0.0,0,0.5,0.0,0.0,0.0,0
2014-03-02 13:04:00,0.0,0,0.5,0.0,0.0,0.0,0
2014-03-02 13:09:00,0.0,0,0.5,0.0,0.0,0.0,0
2014-03-02 13:14:00,0.0,0,0.5,0.0,0.0,0.0,0
2014-03-02 13:19:00,0.0,0,0.5,0.0,0.0,0.0,0
2014-03-02 13:24:00,0.0,0,0.5,0.0,0.0,0.0,0
2014-03-02 13:29:00,0.0,0,0.5,0.0,0.0,0.0,0
2014-03-02 13:34:00,0.0,0,0.5,0.0,0.0,0.0,0
2014-03-02 13:39:00,0.0,0,0.5,0.0,0.0,0.0,0
2014-03-02 13:44:00,0.0,0,0.5,0.0,0.0,0.0,0
2014-03-02 13:49:00,0.0,0,0.5,0.0,0.0,0.0,0
2014-03-02 13:54:00,0.0,0,0.5,0.0,0.0,0.0,0
2014-03-02 13:59:00,0.0,0,0.5,0.0,0.0,0.0,0
2014-03-02 14:04:00,0.0,0,0.5,0.0,0.0,0.0,0
2014-03-02 14:09:00,0.0,0,0.5,0.0,0.0,0.0,0
2014-03-02 14:14:00,0.0,0,0.5,0.0,0.0,0.0,0
2014-03-02 14:19:00,0.0,0,0.5,0.0,0.0,0.0,0
2014-03-02 14:24:00,0.0,0,0.5,0.0,0.0,0.0,0
2014-03-02 14:29:00,0.0,0,0.5,0.0,0.0,0.0,0
2014-03-02 14:34:00,0.0,0,0.5,0.0,0.0,0.0,0
2014-03-02 14:39:00,0.0,0,0.5,0.0,0.0,0.0,0
2014-03-02 14:44:00,0.0,0,0.5,0.0,0.0,0.0,0
2014-03-02 14:49:00,0.0,0,0.5,0.0,0.0,0.0,0
2014-03-02 14:54:00,0.0,0,0.5,0.0,0.0,0.0,0
2014-03-02 14:59:00,0.0,0,0.5,0.0,0.0,0.0,0
2014-03-02 15:04:00,0.0,0,0.5,0.0,0.0,0.0,0
2014-03-02 15:09:00,0.0,0,0.5,0.0,0.0,0.0,0
2014-03-02 15:14:00,0.0,0,0.5,0.0,0.0,0.0,0
2014-03-02 15:19:00,0.0,0,0.5,0.0,0.0,0.0,0
2014-03-02 15:24:00,0.0,0,0.5,0.0,0.0,0.0,0
2014-03-02 15:29:00,0.0,0,0.5,0.0,0.0,0.0,0
2014-03-02 15:34:00,0.0,0,0.5,0.0,0.0,0.0,0
2014-03-02 15:39:00,0.0,0,0.5,0.0,0.0,0.0,0
2014-03-02 15:44:00,0.0,0,0.5,0.0,0.0,0.0,0
2014-03-02 15:49:00,0.0,0,0.5,0.0,0.0,0.0,0
2014-03-02 15:54:00,0.0,0,0.5,0.0,0.0,0.0,0
2014-03-02 15:59:00,0.0,0,0.5,0.0,0.0,0.0,0
2014-03-02 16:04:00,0.0,0,0.5,0.0,0.0,0.0,0
2014-03-02 16:09:00,0.0,0,0.5,0.0,0.0,0.0,0
2014-03-02 16:14:00,0.0,0,0.5,0.0,0.0,0.0,0
2014-03-02 16:19:00,0.0,0,0.5,0.0,0.0,0.0,0
2014-03-02 16:24:00,0.0,0,0.5,0.0,0.0,0.0,0
2014-03-02 16:29:00,0.0,0,0.5,0.0,0.0,0.0,0
2014-03-02 16:34:00,0.0,0,0.5,0.0,0.0,0.0,0
2014-03-02 16:39:00,0.0,0,0.5,0.0,0.0,0.0,0
2014-03-02 16:44:00,0.0,0,0.5,0.0,0.0,0.0,0
2014-03-02 16:49:00,0.0,0,0.5,0.0,0.0,0.0,0
2014-03-02 16:54:00,0.0,0,0.5,0.0,0.0,0.0,0
2014-03-02 16:59:00,0.0,0,0.5,0.0,0.0,0.0,0
2014-03-02 17:04:00,0.0,0,0.5,0.0,0.0,0.0,0
2014-03-02 17:09:00,0.0,0,0.5,0.0,0.0,0.0,0
2014-03-02 17:14:00,0.0,0,0.5,0.0,0.0,0.0,0
2014-03-02 17:19:00,0.0,0,0.5,0.0,0.0,0.0,0
2014-03-02 17:24:00,0.0,0,0.5,0.0,0.0,0.0,0
2014-03-02 17:29:00,0.0,0,0.5,0.0,0.0,0.0,0
2014-03-02 17:34:00,0.0,0,0.5,0.0,0.0,0.0,0
2014-03-02 17:39:00,0.0,0,0.5,0.0,0.0,0.0,0
2014-03-02 17:44:00,0.0,0,0.5,0.0,0.0,0.0,0
2014-03-02 17:49:00,0.0,0,0.5,0.0,0.0,0.0,0
2014-03-02 17:54:00,0.0,0,0.5,0.0,0.0,0.0,0
2014-03-02 17:59:00,0.0,0,0.5,0.0,0.0,0.0,0
2014-03-02 18:04:00,0.0,0,0.5,0.0,0.0,0.0,0
2014-03-02 18:09:00,0.0,0,0.5,0.0,0.0,0.0,0
2014-03-02 18:14:00,0.0,0,0.5,0.0,0.0,0.0,0
2014-03-02 18:19:00,0.0,0,0.5,0.0,0.0,0.0,0
2014-03-02 18:24:00,0.0,0,0.5,0.0,0.0,0.0,0
2014-03-02 18:29:00,0.0,0,0.5,0.0,0.0,0.0,0
2014-03-02 18:34:00,0.0,0,0.5,0.0,0.0,0.0,0
2014-03-02 18:39:00,0.0,0,0.5,0.0,0.0,0.0,0
2014-03-02 18:44:00,0.0,0,0.5,0.0,0.0,0.0,0
2014-03-02 18:49:00,0.0,0,0.5,0.0,0.0,0.0,0
2014-03-02 18:54:00,0.0,0,0.5,0.0,0.0,0.0,0
2014-03-02 18:59:00,0.0,0,0.5,0.0,0.0,0.0,0
2014-03-02 19:04:00,0.0,0,0.5,0.0,0.0,0.0,0
2014-03-02 19:09:00,0.0,0,0.5,0.0,0.0,0.0,0
2014-03-02 19:14:00,0.0,0,0.5,0.0,0.0,0.0,0
2014-03-02 19:19:00,0.0,0,0.5,0.0,0.0,0.0,0
2014-03-02 19:24:00,0.0,0,0.5,0.0,0.0,0.0,0
2014-03-02 19:29:00,0.0,0,0.5,0.0,0.0,0.0,0
2014-03-02 19:34:00,0.0,0,0.5,0.0,0.0,0.0,0
2014-03-02 19:39:00,0.0,0,0.5,0.0,0.0,0.0,0
2014-03-02 19:44:00,0.0,0,0.5,0.0,0.0,0.0,0
2014-03-02 19:49:00,0.0,0,0.5,0.0,0.0,0.0,0
2014-03-02 19:54:00,0.0,0,0.5,0.0,0.0,0.0,0
2014-03-02 19:59:00,0.0,0,0.5,0.0,0.0,0.0,0
2014-03-02 20:04:00,0.0,0,0.5,0.0,0.0,0.0,0
2014-03-02 20:09:00,0.0,0,0.5,0.0,0.0,0.0,0
2014-03-02 20:14:00,0.0,0,0.5,0.0,0.0,0.0,0
2014-03-02 20:19:00,0.0,0,0.5,0.0,0.0,0.0,0
2014-03-02 20:24:00,0.0,0,0.5,0.0,0.0,0.0,0
2014-03-02 20:29:00,0.0,0,0.5,0.0,0.0,0.0,0
2014-03-02 20:34:00,0.0,0,0.5,0.0,0.0,0.0,0
2014-03-02 20:39:00,0.0,0,0.5,0.0,0.0,0.0,0
2014-03-02 20:44:00,0.0,0,0.5,0.0,0.0,0.0,0
2014-03-02 20:49:00,0.0,0,0.5,0.0,0.0,0.0,0
2014-03-02 20:54:00,0.0,0,0.5,0.0,0.0,0.0,0
2014-03-02 20:59:00,0.0,0,0.5,0.0,0.0,0.0,0
2014-03-02 21:04:00,0.0,0,0.5,0.0,0.0,0.0,0
2014-03-02 21:09:00,0.0,0,0.5,0.0,0.0,0.0,0
2014-03-02 21:14:00,0.0,0,0.5,0.0,0.0,0.0,0
2014-03-02 21:19:00,0.0,0,0.5,0.0,0.0,0.0,0
2014-03-02 21:24:00,0.0,0,0.5,0.0,0.0,0.0,0
2014-03-02 21:29:00,0.0,0,0.5,0.0,0.0,0.0,0
2014-03-02 21:34:00,0.0,0,0.5,0.0,0.0,0.0,0
2014-03-02 21:39:00,0.0,0,0.5,0.0,0.0,0.0,0
2014-03-02 21:44:00,0.0,0,0.5,0.0,0.0,0.0,0
2014-03-02 21:49:00,0.0,0,0.5,0.0,0.0,0.0,0
2014-03-02 21:54:00,0.0,0,0.5,0.0,0.0,0.0,0
2014-03-02 21:59:00,0.0,0,0.5,0.0,0.0,0.0,0
2014-03-02 22:04:00,0.0,0,0.5,0.0,0.0,0.0,0
2014-03-02 22:09:00,0.0,0,0.5,0.0,0.0,0.0,0
2014-03-02 22:14:00,0.0,0,0.5,0.0,0.0,0.0,0
2014-03-02 22:19:00,0.0,0,0.5,0.0,0.0,0.0,0
2014-03-02 22:24:00,0.0,0,0.5,0.0,0.0,0.0,0
2014-03-02 22:29:00,0.0,0,0.5,0.0,0.0,0.0,0
2014-03-02 22:34:00,0.0,0,0.5,0.0,0.0,0.0,0
2014-03-02 22:39:00,0.0,0,0.5,0.0,0.0,0.0,0
2014-03-02 22:44:00,0.0,0,0.5,0.0,0.0,0.0,0
2014-03-02 22:49:00,0.0,0,0.5,0.0,0.0,0.0,0
2014-03-02 22:54:00,0.0,0,0.5,0.0,0.0,0.0,0
2014-03-02 22:59:00,0.0,0,0.5,0.0,0.0,0.0,0
2014-03-02 23:04:00,0.0,0,0.5,0.0,0.0,0.0,0
2014-03-02 23:09:00,0.0,0,0.5,0.0,0.0,0.0,0
2014-03-02 23:14:00,0.0,0,0.5,0.0,0.0,0.0,0
2014-03-02 23:19:00,0.0,0,0.5,0.0,0.0,0.0,0
2014-03-02 23:24:00,0.0,0,0.5,0.0,0.0,0.0,0
2014-03-02 23:29:00,0.0,0,0.5,0.0,0.0,0.0,0
2014-03-02 23:34:00,0.0,0,0.5,0.0,0.0,0.0,0
2014-03-02 23:39:00,0.0,0,0.5,0.0,0.0,0.0,0
2014-03-02 23:44:00,0.0,0,0.5,0.0,0.0,0.0,0
2014-03-02 23:49:00,0.0,0,0.5,0.0,0.0,0.0,0
2014-03-02 23:54:00,0.0,0,0.5,0.0,0.0,0.0,0
2014-03-02 23:59:00,0.0,0,0.5,0.0,0.0,0.0,0
2014-03-03 00:04:00,0.0,0,0.5,0.0,0.0,0.0,0
2014-03-03 00:09:00,0.0,0,0.5,0.0,0.0,0.0,0
2014-03-03 00:14:00,0.0,0,0.5,0.0,0.0,0.0,0
2014-03-03 00:19:00,0.0,0,0.5,0.0,0.0,0.0,0
2014-03-03 00:24:00,0.0,0,0.5,0.0,0.0,0.0,0
2014-03-03 00:29:00,0.0,0,0.5,0.0,0.0,0.0,0
2014-03-03 00:34:00,0.0,0,0.5,0.0,0.0,0.0,0
2014-03-03 00:39:00,0.0,0,0.5,0.0,0.0,0.0,0
2014-03-03 00:44:00,0.0,0,0.5,0.0,0.0,0.0,0
2014-03-03 00:49:00,0.0,0,0.5,0.0,0.0,0.0,0
2014-03-03 00:54:00,0.0,0,0.5,0.0,0.0,0.0,0
2014-03-03 00:59:00,0.0,0,0.5,0.0,0.0,0.0,0
2014-03-03 01:04:00,0.0,0,0.5,0.0,0.0,0.0,0
2014-03-03 01:09:00,0.0,0,0.5,0.0,0.0,0.0,0
2014-03-03 01:14:00,0.0,0,0.5,0.0,0.0,0.0,0
2014-03-03 01:19:00,0.0,0,0.5,0.0,0.0,0.0,0
2014-03-03 01:24:00,0.0,0,0.5,0.0,0.0,0.0,0
2014-03-03 01:29:00,0.0,0,0.5,0.0,0.0,0.0,0
2014-03-03 01:34:00,0.0,0,0.5,0.0,0.0,0.0,0
2014-03-03 01:39:00,0.0,0,0.5,0.0,0.0,0.0,0
2014-03-03 01:44:00,0.0,0,0.5,0.0,0.0,0.0,0
2014-03-03 01:49:00,0.0,0,0.5,0.0,0.0,0.0,0
2014-03-03 01:54:00,0.0,0,0.500199473045,0.0,0.0,0.0,0
2014-03-03 01:59:00,0.0,0,0.500199473045,0.0,0.0,0.0,0
2014-03-03 02:04:00,0.0,0,0.500199473045,0.0,0.0,0.0,0
2014-03-03 02:09:00,0.0,0,0.500199473045,0.0,0.0,0.0,0
2014-03-03 02:14:00,0.0,0,0.500199473045,0.0,0.0,0.0,0
2014-03-03 02:19:00,0.0,0,0.500199473045,0.0,0.0,0.0,0
2014-03-03 02:24:00,0.0,0,0.500199473045,0.0,0.0,0.0,0
2014-03-03 02:29:00,0.0,0,0.500199473045,0.0,0.0,0.0,0
2014-03-03 02:34:00,0.0,0,0.500199473045,0.0,0.0,0.0,0
2014-03-03 02:39:00,0.0,0,0.500199473045,0.0,0.0,0.0,0
2014-03-03 02:44:00,0.0,0,0.500199473045,0.0,0.0,0.0,0
2014-03-03 02:49:00,0.0,0,0.500199473045,0.0,0.0,0.0,0
2014-03-03 02:54:00,0.0,0,0.500199473045,0.0,0.0,0.0,0
2014-03-03 02:59:00,0.0,0,0.500199473045,0.0,0.0,0.0,0
2014-03-03 03:04:00,0.0,0,0.500199473045,0.0,0.0,0.0,0
2014-03-03 03:09:00,0.0,0,0.500199473045,0.0,0.0,0.0,0
2014-03-03 03:14:00,0.0,0,0.500199473045,0.0,0.0,0.0,0
2014-03-03 03:19:00,0.0,0,0.500199473045,0.0,0.0,0.0,0
2014-03-03 03:24:00,0.0,0,0.500199473045,0.0,0.0,0.0,0
2014-03-03 03:29:00,0.0,0,0.500199473045,0.0,0.0,0.0,0
2014-03-03 03:34:00,0.0,0,0.500199473045,0.0,0.0,0.0,0
2014-03-03 03:39:00,0.0,0,0.500199473045,0.0,0.0,0.0,0
2014-03-03 03:44:00,0.0,0,0.500199473045,0.0,0.0,0.0,0
2014-03-03 03:49:00,0.0,0,0.500199473045,0.0,0.0,0.0,0
2014-03-03 03:54:00,0.0,0,0.500199473045,0.0,0.0,0.0,0
2014-03-03 03:59:00,0.0,0,0.500199473045,0.0,0.0,0.0,0
2014-03-03 04:04:00,0.0,0,0.500199473045,0.0,0.0,0.0,0
2014-03-03 04:09:00,0.0,0,0.500199473045,0.0,0.0,0.0,0
2014-03-03 04:14:00,0.0,0,0.500199473045,0.0,0.0,0.0,0
2014-03-03 04:19:00,0.0,0,0.500199473045,0.0,0.0,0.0,0
2014-03-03 04:24:00,0.0,0,0.500199473045,0.0,0.0,0.0,0
2014-03-03 04:29:00,0.0,0,0.500199473045,0.0,0.0,0.0,0
2014-03-03 04:34:00,0.0,0,0.500199473045,0.0,0.0,0.0,0
2014-03-03 04:39:00,0.0,0,0.500199473045,0.0,0.0,0.0,0
2014-03-03 04:44:00,0.0,0,0.500199473045,0.0,0.0,0.0,0
2014-03-03 04:49:00,0.0,0,0.500199473045,0.0,0.0,0.0,0
2014-03-03 04:54:00,0.0,0,0.500199473045,0.0,0.0,0.0,0
2014-03-03 04:59:00,0.0,0,0.500199473045,0.0,0.0,0.0,0
2014-03-03 05:04:00,0.0,0,0.500199473045,0.0,0.0,0.0,0
2014-03-03 05:09:00,0.0,0,0.500199473045,0.0,0.0,0.0,0
2014-03-03 05:14:00,0.0,0,0.500199473045,0.0,0.0,0.0,0
2014-03-03 05:19:00,0.0,0,0.500199473045,0.0,0.0,0.0,0
2014-03-03 05:24:00,0.0,0,0.500199473045,0.0,0.0,0.0,0
2014-03-03 05:29:00,0.0,0,0.500199473045,0.0,0.0,0.0,0
2014-03-03 05:34:00,0.0,0,0.500199473045,0.0,0.0,0.0,0
2014-03-03 05:39:00,0.0,0,0.500199473045,0.0,0.0,0.0,0
2014-03-03 05:44:00,0.0,0,0.500199473045,0.0,0.0,0.0,0
2014-03-03 05:49:00,0.0,0,0.500199473045,0.0,0.0,0.0,0
2014-03-03 05:54:00,0.0,0,0.500199473045,0.0,0.0,0.0,0
2014-03-03 05:59:00,0.0,0,0.500199473045,0.0,0.0,0.0,0
2014-03-03 06:04:00,0.0,0,0.500199473045,0.0,0.0,0.0,0
2014-03-03 06:09:00,0.0,0,0.500199473045,0.0,0.0,0.0,0
2014-03-03 06:14:00,0.0,0,0.500199473045,0.0,0.0,0.0,0
2014-03-03 06:19:00,0.0,0,0.500199473045,0.0,0.0,0.0,0
2014-03-03 06:24:00,0.0,0,0.500199473045,0.0,0.0,0.0,0
2014-03-03 06:29:00,0.0,0,0.500199473045,0.0,0.0,0.0,0
2014-03-03 06:34:00,0.0,0,0.500199473045,0.0,0.0,0.0,0
2014-03-03 06:39:00,0.0,0,0.500199473045,0.0,0.0,0.0,0
2014-03-03 06:44:00,0.0,0,0.500199473045,0.0,0.0,0.0,0
2014-03-03 06:49:00,0.0,0,0.500199473045,0.0,0.0,0.0,0
2014-03-03 06:54:00,0.0,0,0.500199473045,0.0,0.0,0.0,0
2014-03-03 06:59:00,0.0,0,0.500199473045,0.0,0.0,0.0,0
2014-03-03 07:04:00,0.0,0,0.500199473045,0.0,0.0,0.0,0
2014-03-03 07:09:00,0.0,0,0.500199473045,0.0,0.0,0.0,0
2014-03-03 07:14:00,0.0,0,0.500199473045,0.0,0.0,0.0,0
2014-03-03 07:19:00,0.0,0,0.500199473045,0.0,0.0,0.0,0
2014-03-03 07:24:00,0.0,0,0.500199473045,0.0,0.0,0.0,0
2014-03-03 07:29:00,0.0,0,0.500199473045,0.0,0.0,0.0,0
2014-03-03 07:34:00,0.0,0,0.500199473045,0.0,0.0,0.0,0
2014-03-03 07:39:00,0.0,0,0.500199473045,0.0,0.0,0.0,0
2014-03-03 07:44:00,0.0,0,0.500199473045,0.0,0.0,0.0,0
2014-03-03 07:49:00,0.0,0,0.500199473045,0.0,0.0,0.0,0
2014-03-03 07:54:00,0.0,0,0.500199473045,0.0,0.0,0.0,0
2014-03-03 07:59:00,0.00442626544185,0,0.500199296461,0.0,0.0,0.0,0
2014-03-03 08:04:00,0.00369903024347,0,0.500199148889,0.0,0.0,0.0,0
2014-03-03 08:09:00,0.0,0,0.500199148889,0.0,0.0,0.0,0
2014-03-03 08:14:00,0.0,0,0.500199148889,0.0,0.0,0.0,0
2014-03-03 08:19:00,0.0,0,0.500199148889,0.0,0.0,0.0,0
2014-03-03 08:24:00,0.0,0,0.500199148889,0.0,0.0,0.0,0
2014-03-03 08:29:00,0.0,0,0.500199148889,0.0,0.0,0.0,0
2014-03-03 08:34:00,0.0,0,0.500199148889,0.0,0.0,0.0,0
2014-03-03 08:39:00,0.0,0,0.500199148889,0.0,0.0,0.0,0
2014-03-03 08:44:00,0.0,0,0.500199148889,0.0,0.0,0.0,0
2014-03-03 08:49:00,0.0,0,0.500199325473,0.0,0.0,0.0,0
2014-03-03 08:54:00,0.0,0,0.500199473045,0.0,0.0,0.0,0
2014-03-03 08:59:00,0.0,0,0.500199473045,0.0,0.0,0.0,0
2014-03-03 09:04:00,0.0,0,0.500199473045,0.0,0.0,0.0,0
2014-03-03 09:09:00,0.0,0,0.500199473045,0.0,0.0,0.0,0
2014-03-03 09:14:00,0.0,0,0.500199473045,0.0,0.0,0.0,0
2014-03-03 09:19:00,0.0,0,0.500199473045,0.0,0.0,0.0,0
2014-03-03 09:24:00,0.0,0,0.500199473045,0.0,0.0,0.0,0
2014-03-03 09:29:00,0.0,0,0.500199473045,0.0,0.0,0.0,0
2014-03-03 09:34:00,0.0,0,0.500199473045,0.0,0.0,0.0,0
2014-03-03 09:39:00,0.0,0,0.500199473045,0.0,0.0,0.0,0
2014-03-03 09:44:00,0.0,0,0.500199473045,0.0,0.0,0.0,0
2014-03-03 09:49:00,0.0,0,0.500199473045,0.0,0.0,0.0,0
2014-03-03 09:54:00,0.0,0,0.500199473045,0.0,0.0,0.0,0
2014-03-03 09:59:00,0.0,0,0.500199473045,0.0,0.0,0.0,0
2014-03-03 10:04:00,0.0,0,0.500199473045,0.0,0.0,0.0,0
2014-03-03 10:09:00,0.0,0,0.500199473045,0.0,0.0,0.0,0
2014-03-03 10:14:00,0.0,0,0.500199473045,0.0,0.0,0.0,0
2014-03-03 10:19:00,0.0,0,0.500199473045,0.0,0.0,0.0,0
2014-03-03 10:24:00,0.0,0,0.500199473045,0.0,0.0,0.0,0
2014-03-03 10:29:00,0.0,0,0.500199473045,0.0,0.0,0.0,0
2014-03-03 10:34:00,0.0,0,0.500199473045,0.0,0.0,0.0,0
2014-03-03 10:39:00,0.0,0,0.500199473045,0.0,0.0,0.0,0
2014-03-03 10:44:00,0.0,0,0.500199473045,0.0,0.0,0.0,0
2014-03-03 10:49:00,0.0,0,0.500199473045,0.0,0.0,0.0,0
2014-03-03 10:54:00,0.0,0,0.500199473045,0.0,0.0,0.0,0
2014-03-03 10:59:00,0.0,0,0.500199473045,0.0,0.0,0.0,0
2014-03-03 11:04:00,0.0,0,0.500199473045,0.0,0.0,0.0,0
2014-03-03 11:09:00,0.0,0,0.500199473045,0.0,0.0,0.0,0
2014-03-03 11:14:00,0.0,0,0.500199473045,0.0,0.0,0.0,0
2014-03-03 11:19:00,0.0,0,0.500199473045,0.0,0.0,0.0,0
2014-03-03 11:24:00,0.0,0,0.500199473045,0.0,0.0,0.0,0
2014-03-03 11:29:00,0.0,0,0.500199473045,0.0,0.0,0.0,0
2014-03-03 11:34:00,0.0,0,0.500199473045,0.0,0.0,0.0,0
2014-03-03 11:39:00,0.0,0,0.500199473045,0.0,0.0,0.0,0
2014-03-03 11:44:00,0.0,0,0.500199473045,0.0,0.0,0.0,0
2014-03-03 11:49:00,0.0,0,0.500199473045,0.0,0.0,0.0,0
2014-03-03 11:54:00,0.0,0,0.500199473045,0.0,0.0,0.0,0
2014-03-03 11:59:00,0.0,0,0.500199473045,0.0,0.0,0.0,0
2014-03-03 12:04:00,0.0,0,0.500199473045,0.0,0.0,0.0,0
2014-03-03 12:09:00,0.0,0,0.500199473045,0.0,0.0,0.0,0
2014-03-03 12:14:00,0.0,0,0.500199473045,0.0,0.0,0.0,0
2014-03-03 12:19:00,0.0,0,0.500199473045,0.0,0.0,0.0,0
2014-03-03 12:24:00,0.0,0,0.500199473045,0.0,0.0,0.0,0
2014-03-03 12:29:00,0.0,0,0.500199473045,0.0,0.0,0.0,0
2014-03-03 12:34:00,0.0,0,0.500199473045,0.0,0.0,0.0,0
2014-03-03 12:39:00,0.0,0,0.500199473045,0.0,0.0,0.0,0
2014-03-03 12:44:00,0.0,0,0.500199473045,0.0,0.0,0.0,0
2014-03-03 12:49:00,0.0,0,0.500199473045,0.0,0.0,0.0,0
2014-03-03 12:54:00,0.0,0,0.500199473045,0.0,0.0,0.0,0
2014-03-03 12:59:00,0.0,0,0.500199473045,0.0,0.0,0.0,0
2014-03-03 13:04:00,0.0,0,0.500199473045,0.0,0.0,0.0,0
2014-03-03 13:09:00,0.0,0,0.500199473045,0.0,0.0,0.0,0
2014-03-03 13:14:00,0.0,0,0.500199473045,0.0,0.0,0.0,0
2014-03-03 13:19:00,0.0,0,0.500199473045,0.0,0.0,0.0,0
2014-03-03 13:24:00,0.0,0,0.500199473045,0.0,0.0,0.0,0
2014-03-03 13:29:00,0.0,0,0.500199473045,0.0,0.0,0.0,0
2014-03-03 13:34:00,0.0,0,0.500199473045,0.0,0.0,0.0,0
2014-03-03 13:39:00,0.0,0,0.500199473045,0.0,0.0,0.0,0
2014-03-03 13:44:00,0.0,0,0.500199473045,0.0,0.0,0.0,0
2014-03-03 13:49:00,0.0,0,0.500199473045,0.0,0.0,0.0,0
2014-03-03 13:54:00,0.0,0,0.500199473045,0.0,0.0,0.0,0
2014-03-03 13:59:00,0.0,0,0.500199473045,0.0,0.0,0.0,0
2014-03-03 14:04:00,0.0,0,0.500199473045,0.0,0.0,0.0,0
2014-03-03 14:09:00,0.0,0,0.500199473045,0.0,0.0,0.0,0
2014-03-03 14:14:00,0.0,0,0.500199473045,0.0,0.0,0.0,0
2014-03-03 14:19:00,0.0,0,0.500199473045,0.0,0.0,0.0,0
2014-03-03 14:24:00,0.0,0,0.500199473045,0.0,0.0,0.0,0
2014-03-03 14:29:00,0.0,0,0.500199473045,0.0,0.0,0.0,0
2014-03-03 14:34:00,0.0,0,0.500199473045,0.0,0.0,0.0,0
2014-03-03 14:39:00,0.0,0,0.500199473045,0.0,0.0,0.0,0
2014-03-03 14:44:00,0.0,0,0.500199473045,0.0,0.0,0.0,0
2014-03-03 14:49:00,0.0,0,0.500199473045,0.0,0.0,0.0,0
2014-03-03 14:54:00,0.0,0,0.500199473045,0.0,0.0,0.0,0
2014-03-03 14:59:00,0.0,0,0.500199473045,0.0,0.0,0.0,0
2014-03-03 15:04:00,0.0,0,0.500199473045,0.0,0.0,0.0,0
2014-03-03 15:09:00,0.0,0,0.500199473045,0.0,0.0,0.0,0
2014-03-03 15:14:00,0.0,0,0.500199473045,0.0,0.0,0.0,0
2014-03-03 15:19:00,0.0,0,0.500199473045,0.0,0.0,0.0,0
2014-03-03 15:24:00,0.0,0,0.500199473045,0.0,0.0,0.0,0
2014-03-03 15:29:00,0.0,0,0.500199473045,0.0,0.0,0.0,0
2014-03-03 15:34:00,0.0,0,0.500199473045,0.0,0.0,0.0,0
2014-03-03 15:39:00,0.0,0,0.500199473045,0.0,0.0,0.0,0
2014-03-03 15:44:00,0.0,0,0.500199473045,0.0,0.0,0.0,0
2014-03-03 15:49:00,0.0,0,0.500199473045,0.0,0.0,0.0,0
2014-03-03 15:54:00,0.0,0,0.500199473045,0.0,0.0,0.0,0
2014-03-03 15:59:00,0.0,0,0.500199473045,0.0,0.0,0.0,0
2014-03-03 16:04:00,0.0,0,0.500199473045,0.0,0.0,0.0,0
2014-03-03 16:09:00,0.0,0,0.500199473045,0.0,0.0,0.0,0
2014-03-03 16:14:00,0.0,0,0.500199473045,0.0,0.0,0.0,0
2014-03-03 16:19:00,0.0,0,0.500199473045,0.0,0.0,0.0,0
2014-03-03 16:24:00,0.0,0,0.500199473045,0.0,0.0,0.0,0
2014-03-03 16:29:00,0.0,0,0.500199473045,0.0,0.0,0.0,0
2014-03-03 16:34:00,0.0,0,0.500199473045,0.0,0.0,0.0,0
2014-03-03 16:39:00,0.0,0,0.500199473045,0.0,0.0,0.0,0
2014-03-03 16:44:00,0.0,0,0.500199473045,0.0,0.0,0.0,0
2014-03-03 16:49:00,0.0,0,0.500199473045,0.0,0.0,0.0,0
2014-03-03 16:54:00,0.0,0,0.500199473045,0.0,0.0,0.0,0
2014-03-03 16:59:00,0.0,0,0.500199473045,0.0,0.0,0.0,0
2014-03-03 17:04:00,0.0,0,0.500199473045,0.0,0.0,0.0,0
2014-03-03 17:09:00,0.0,0,0.500199473045,0.0,0.0,0.0,0
2014-03-03 17:14:00,0.0379315635749,0,0.50019795978,0.0,0.0,0.0,0
2014-03-03 17:19:00,0.263640797359,0,0.500187441934,0.0,0.0,0.0,0
2014-03-03 17:24:00,0.0931057599044,0,0.500183727517,0.0,0.0,0.0,0
2014-03-03 17:29:00,0.0590439066447,0,0.500181371983,0.0,0.0,0.0,0
2014-03-03 17:34:00,6.73367954013e-05,0,0.500181369297,0.0,0.0,0.0,0
2014-03-03 17:39:00,0.0,0,0.500181369297,0.0,0.0,0.0,0
2014-03-03 17:44:00,0.0,0,0.500181369297,0.0,0.0,0.0,0
2014-03-03 17:49:00,0.0,0,0.500181369297,0.0,0.0,0.0,0
2014-03-03 17:54:00,0.0,0,0.500181369297,0.0,0.0,0.0,0
2014-03-03 17:59:00,0.0,0,0.500181369297,0.0,0.0,0.0,0
2014-03-03 18:04:00,0.0,0,0.500182882562,0.0,0.0,0.0,0
2014-03-03 18:09:00,3.74093307785e-05,0,0.500193398915,0.0,0.0,0.0,0
2014-03-03 18:14:00,0.0,0,0.500197113333,0.0,0.0,0.0,0
2014-03-03 18:19:00,0.0,0,0.500199468866,0.0,0.0,0.0,0
2014-03-03 18:24:00,0.0,0,0.500199471552,0.0,0.0,0.0,0
2014-03-03 18:29:00,0.0,0,0.500199471552,0.0,0.0,0.0,0
2014-03-03 18:34:00,0.0,0,0.500199471552,0.0,0.0,0.0,0
2014-03-03 18:39:00,0.0365294443217,0,0.500198014225,0.0,0.0,0.0,0
2014-03-03 18:44:00,0.092098740175,0,0.500194339982,0.0,0.0,0.0,0
2014-03-03 18:49:00,0.261585841445,0,0.500183904118,0.0,0.0,0.0,0
2014-03-03 18:54:00,0.0560286926644,0,0.500181668875,0.0,0.0,0.0,0
2014-03-03 18:59:00,0.00311843669914,0,0.500181545959,0.0,0.0,0.0,0
2014-03-03 19:04:00,0.0,0,0.500181545959,0.0,0.0,0.0,0
2014-03-03 19:09:00,0.0,0,0.500181545959,0.0,0.0,0.0,0
2014-03-03 19:14:00,0.0,0,0.500181545959,0.0,0.0,0.0,0
2014-03-03 19:19:00,0.0,0,0.500181545959,0.0,0.0,0.0,0
2014-03-03 19:24:00,0.0,0,0.500181545959,0.0,0.0,0.0,0
2014-03-03 19:29:00,0.0,0,0.500183003286,0.0,0.0,0.0,0
2014-03-03 19:34:00,0.0,0,0.547640792354,0.0,0.0,0.0,0
2014-03-03 19:39:00,0.0,0,0.917823289234,0.0,0.0,0.0,0
2014-03-03 19:44:00,3.74093307785e-05,0,0.956721581651,0.0,0.0,0.0,0
2014-03-03 19:49:00,0.077215927461,0,0.900785587281,0.0,0.0,0.0,0
2014-03-03 19:54:00,0.312482989532,0,0.697805013889,0.0,0.0,0.0,0
2014-03-03 19:59:00,0.00241814425608,0,0.702657498172,0.0,0.0,0.0,0
2014-03-03 20:04:00,0.0566227119208,0,0.804822487268,0.0,0.0,0.0,0
2014-03-03 20:09:00,1.64601055425e-05,0,0.804848702245,0.0,0.0,0.0,0
2014-03-03 20:14:00,0.0,0,0.804848702245,0.0,0.0,0.0,0
2014-03-03 20:19:00,0.0,0,0.804848702245,0.0,0.0,0.0,0
2014-03-03 20:24:00,0.0,0,0.804848702245,0.0,0.0,0.0,0
2014-03-03 20:29:00,0.036542961365,0,0.857701968268,0.0,0.0,0.0,0
2014-03-03 20:34:00,0.234279587255,0,0.992292140748,0.0,0.0,0.0,0
2014-03-03 20:39:00,0.118511225539,0,0.996103201325,0.0,0.0,0.0,0
2014-03-03 20:44:00,0.0598310004256,0,0.885353553303,0.0,0.0,0.0,0