timestamp,value,is_anomaly,anomaly_score,S(t)_reward_low_FP_rate,S(t)_reward_low_FN_rate,S(t)_standard,predicted_anomaly
2014-04-02 14:25:00,4.00665104073e-05,0,0.5,0.0,0.0,0.0,0
2014-04-02 14:30:00,0.000380631848869,0,0.5,0.0,0.0,0.0,0
2014-04-02 14:35:00,0.000360598593665,0,0.5,0.0,0.0,0.0,0
2014-04-02 14:40:00,0.000340565338462,0,0.5,0.0,0.0,0.0,0
2014-04-02 14:45:00,0.000380631848869,0,0.5,0.0,0.0,0.0,0
2014-04-02 14:50:00,0.00136226135385,0,0.5,0.0,0.0,0.0,0
2014-04-02 14:55:00,0.000360598593665,0,0.5,0.0,0.0,0.0,0
2014-04-02 15:00:00,0.291223430895,0,0.5,0.0,0.0,0.0,0
2014-04-02 15:05:00,0.924474627882,0,0.5,0.0,0.0,0.0,0
2014-04-02 15:10:00,0.893903880442,0,0.5,0.0,0.0,0.0,0
2014-04-02 15:15:00,0.898952260753,0,0.5,0.0,0.0,0.0,0
2014-04-02 15:20:00,0.202095478494,0,0.5,0.0,0.0,0.0,0
2014-04-02 15:25:00,0.000360598593665,0,0.5,0.0,0.0,0.0,0
2014-04-02 15:30:00,0.000380631848869,0,0.5,0.0,0.0,0.0,0
2014-04-02 15:35:00,0.000380631848869,0,0.5,0.0,0.0,0.0,0
2014-04-02 15:40:00,2.00332552036e-05,0,0.5,0.0,0.0,0.0,0
2014-04-02 15:45:00,0.000340565338462,0,0.5,0.0,0.0,0.0,0
2014-04-02 15:50:00,0.000360598593665,0,0.5,0.0,0.0,0.0,0
2014-04-02 15:55:00,0.000380631848869,0,0.5,0.0,0.0,0.0,0
2014-04-02 16:00:00,0.000340565338462,0,0.5,0.0,0.0,0.0,0
2014-04-02 16:05:00,0.000340565338462,0,0.5,0.0,0.0,0.0,0
2014-04-02 16:10:00,2.00332552036e-05,0,0.5,0.0,0.0,0.0,0
2014-04-02 16:15:00,0.000340565338462,0,0.5,0.0,0.0,0.0,0
2014-04-02 16:20:00,0.000380631848869,0,0.5,0.0,0.0,0.0,0
2014-04-02 16:25:00,4.00665104073e-05,0,0.5,0.0,0.0,0.0,0
2014-04-02 16:30:00,0.000360598593665,0,0.5,0.0,0.0,0.0,0
2014-04-02 16:35:00,0.000380631848869,0,0.5,0.0,0.0,0.0,0
2014-04-02 16:40:00,0.000360598593665,0,0.5,0.0,0.0,0.0,0
2014-04-02 16:45:00,0.000380631848869,0,0.5,0.0,0.0,0.0,0
2014-04-02 16:50:00,4.00665104073e-05,0,0.5,0.0,0.0,0.0,0
2014-04-02 16:55:00,0.000360598593665,0,0.5,0.0,0.0,0.0,0
2014-04-02 17:00:00,0.000380631848869,0,0.5,0.0,0.0,0.0,0
2014-04-02 17:05:00,0.732275577459,0,0.5,0.0,0.0,0.0,0
2014-04-02 17:10:00,0.841256485766,0,0.5,0.0,0.0,0.0,0
2014-04-02 17:15:00,0.949636396418,0,0.5,0.0,0.0,0.0,0
2014-04-02 17:20:00,0.688783380411,0,0.5,0.0,0.0,0.0,0
2014-04-02 17:25:00,0.000380631848869,0,0.5,0.0,0.0,0.0,0
2014-04-02 17:30:00,2.00332552036e-05,0,0.5,0.0,0.0,0.0,0
2014-04-02 17:35:00,0.000360598593665,0,0.5,0.0,0.0,0.0,0
2014-04-02 17:40:00,0.0804936194082,0,0.5,0.0,0.0,0.0,0
2014-04-02 17:45:00,0.945970310716,0,0.5,0.0,0.0,0.0,0
2014-04-02 17:50:00,0.000721197187331,0,0.5,0.0,0.0,0.0,0
2014-04-02 17:55:00,4.00665104073e-05,0,0.5,0.0,0.0,0.0,0
2014-04-02 18:00:00,0.000380631848869,0,0.5,0.0,0.0,0.0,0
2014-04-02 18:05:00,0.000380631848869,0,0.5,0.0,0.0,0.0,0
2014-04-02 18:10:00,0.000340565338462,0,0.5,0.0,0.0,0.0,0
2014-04-02 18:15:00,0.952541218423,0,0.5,0.0,0.0,0.0,0
2014-04-02 18:20:00,0.0748041749304,0,0.5,0.0,0.0,0.0,0
2014-04-02 18:25:00,0.7653504818,0,0.5,0.0,0.0,0.0,0
2014-04-02 18:30:00,0.863012600918,0,0.5,0.0,0.0,0.0,0
2014-04-02 18:35:00,0.941683194102,0,0.5,0.0,0.0,0.0,0
2014-04-02 18:40:00,0.649257767895,0,0.5,0.0,0.0,0.0,0
2014-04-02 18:45:00,0.000380631848869,0,0.5,0.0,0.0,0.0,0
2014-04-02 18:50:00,2.00332552036e-05,0,0.5,0.0,0.0,0.0,0
2014-04-02 18:55:00,0.000380631848869,0,0.5,0.0,0.0,0.0,0
2014-04-02 19:00:00,0.000360598593665,0,0.5,0.0,0.0,0.0,0
2014-04-02 19:05:00,0.000360598593665,0,0.5,0.0,0.0,0.0,0
2014-04-02 19:10:00,0.098182983753,0,0.5,0.0,0.0,0.0,0
2014-04-02 19:15:00,0.000360598593665,0,0.5,0.0,0.0,0.0,0
2014-04-02 19:20:00,0.000360598593665,0,0.5,0.0,0.0,0.0,0
2014-04-02 19:25:00,4.00665104073e-05,0,0.5,0.0,0.0,0.0,0
2014-04-02 19:30:00,0.000360598593665,0,0.5,0.0,0.0,0.0,0
2014-04-02 19:35:00,2.00332552036e-05,0,0.5,0.0,0.0,0.0,0
2014-04-02 19:40:00,0.000360598593665,0,0.5,0.0,0.0,0.0,0
2014-04-02 19:45:00,0.000360598593665,0,0.5,0.0,0.0,0.0,0
2014-04-02 19:50:00,0.000380631848869,0,0.5,0.0,0.0,0.0,0
2014-04-02 19:55:00,4.00665104073e-05,0,0.5,0.0,0.0,0.0,0
2014-04-02 20:00:00,0.000380631848869,0,0.5,0.0,0.0,0.0,0
2014-04-02 20:05:00,0.000380631848869,0,0.5,0.0,0.0,0.0,0
2014-04-02 20:10:00,4.00665104073e-05,0,0.5,0.0,0.0,0.0,0
2014-04-02 20:15:00,0.000340565338462,0,0.5,0.0,0.0,0.0,0
2014-04-02 20:20:00,0.000380631848869,0,0.5,0.0,0.0,0.0,0
2014-04-02 20:25:00,0.000360598593665,0,0.5,0.0,0.0,0.0,0
2014-04-02 20:30:00,0.000380631848869,0,0.5,0.0,0.0,0.0,0
2014-04-02 20:35:00,2.00332552036e-05,0,0.5,0.0,0.0,0.0,0
2014-04-02 20:40:00,0.000380631848869,0,0.5,0.0,0.0,0.0,0
2014-04-02 20:45:00,0.000380631848869,0,0.5,0.0,0.0,0.0,0
2014-04-02 20:50:00,4.00665104073e-05,0,0.5,0.0,0.0,0.0,0
2014-04-02 20:55:00,0.000360598593665,0,0.5,0.0,0.0,0.0,0
2014-04-02 21:00:00,0.000380631848869,0,0.5,0.0,0.0,0.0,0
2014-04-02 21:05:00,0.000380631848869,0,0.5,0.0,0.0,0.0,0
2014-04-02 21:10:00,0.000380631848869,0,0.5,0.0,0.0,0.0,0
2014-04-02 21:15:00,4.00665104073e-05,0,0.5,0.0,0.0,0.0,0
2014-04-02 21:20:00,0.000360598593665,0,0.5,0.0,0.0,0.0,0
2014-04-02 21:25:00,0.344251457419,0,0.5,0.0,0.0,0.0,0
2014-04-02 21:30:00,0.929563074704,0,0.5,0.0,0.0,0.0,0
2014-04-02 21:35:00,0.912434641505,0,0.5,0.0,0.0,0.0,0
2014-04-02 21:40:00,0.891840455156,0,0.5,0.0,0.0,0.0,0
2014-04-02 21:45:00,0.152613338141,0,0.5,0.0,0.0,0.0,0
2014-04-02 21:50:00,0.000360598593665,0,0.5,0.0,0.0,0.0,0
2014-04-02 21:55:00,0.00170282669231,0,0.5,0.0,0.0,0.0,0
2014-04-02 22:00:00,0.0100566941122,0,0.5,0.0,0.0,0.0,0
2014-04-02 22:05:00,0.978684616463,0,0.5,0.0,0.0,0.0,0
2014-04-02 22:10:00,0.809043011399,0,0.5,0.0,0.0,0.0,0
2014-04-02 22:15:00,0.937035478895,0,0.5,0.0,0.0,0.0,0
2014-04-02 22:20:00,0.516317086363,0,0.5,0.0,0.0,0.0,0
2014-04-02 22:25:00,4.00665104073e-05,0,0.5,0.0,0.0,0.0,0
2014-04-02 22:30:00,0.639481539355,0,0.5,0.0,0.0,0.0,0
2014-04-02 22:35:00,0.831420157461,0,0.5,0.0,0.0,0.0,0
2014-04-02 22:40:00,0.972614540137,0,0.5,0.0,0.0,0.0,0
2014-04-02 22:45:00,0.748081815814,0,0.5,0.0,0.0,0.0,0
2014-04-02 22:50:00,0.0611214616263,0,0.5,0.0,0.0,0.0,0
2014-04-02 22:55:00,0.000380631848869,0,0.5,0.0,0.0,0.0,0
2014-04-02 23:00:00,2.00332552036e-05,0,0.5,0.0,0.0,0.0,0
2014-04-02 23:05:00,0.000360598593665,0,0.5,0.0,0.0,0.0,0
2014-04-02 23:10:00,0.000340565338462,0,0.5,0.0,0.0,0.0,0
2014-04-02 23:15:00,4.00665104073e-05,0,0.5,0.0,0.0,0.0,0
2014-04-02 23:20:00,0.000380631848869,0,0.5,0.0,0.0,0.0,0
2014-04-02 23:25:00,0.000380631848869,0,0.5,0.0,0.0,0.0,0
2014-04-02 23:30:00,0.000380631848869,0,0.5,0.0,0.0,0.0,0
2014-04-02 23:35:00,0.000360598593665,0,0.5,0.0,0.0,0.0,0
2014-04-02 23:40:00,4.00665104073e-05,0,0.5,0.0,0.0,0.0,0
2014-04-02 23:45:00,0.000340565338462,0,0.5,0.0,0.0,0.0,0
2014-04-02 23:50:00,0.000360598593665,0,0.5,0.0,0.0,0.0,0
2014-04-02 23:55:00,0.000360598593665,0,0.5,0.0,0.0,0.0,0
2014-04-03 00:00:00,0.000380631848869,0,0.5,0.0,0.0,0.0,0
2014-04-03 00:05:00,0.000340565338462,0,0.5,0.0,0.0,0.0,0
2014-04-03 00:10:00,0.000380631848869,0,0.5,0.0,0.0,0.0,0
2014-04-03 00:15:00,0.0985636156019,0,0.5,0.0,0.0,0.0,0
2014-04-03 00:20:00,0.000380631848869,0,0.5,0.0,0.0,0.0,0
2014-04-03 00:25:00,0.000360598593665,0,0.5,0.0,0.0,0.0,0
2014-04-03 00:30:00,0.000360598593665,0,0.5,0.0,0.0,0.0,0
2014-04-03 00:35:00,4.00665104073e-05,0,0.5,0.0,0.0,0.0,0
2014-04-03 00:40:00,0.553819340105,0,0.5,0.0,0.0,0.0,0
2014-04-03 00:45:00,0.872448264118,0,0.5,0.0,0.0,0.0,0
2014-04-03 00:50:00,0.976260592584,0,0.5,0.0,0.0,0.0,0
2014-04-03 00:55:00,0.770519061642,0,0.5,0.0,0.0,0.0,0
2014-04-03 01:00:00,0.0832181421159,0,0.5,0.0,0.0,0.0,0
2014-04-03 01:05:00,4.00665104073e-05,0,0.5,0.0,0.0,0.0,0
2014-04-03 01:10:00,0.000380631848869,0,0.5,0.0,0.0,0.0,0
2014-04-03 01:15:00,0.000360598593665,0,0.5,0.0,0.0,0.0,0
2014-04-03 01:20:00,2.00332552036e-05,0,0.5,0.0,0.0,0.0,0
2014-04-03 01:25:00,0.000360598593665,0,0.5,0.0,0.0,0.0,0
2014-04-03 01:30:00,0.000380631848869,0,0.5,0.0,0.0,0.0,0
2014-04-03 01:35:00,4.00665104073e-05,0,0.5,0.0,0.0,0.0,0
2014-04-03 01:40:00,0.000360598593665,0,0.5,0.0,0.0,0.0,0
2014-04-03 01:45:00,0.000380631848869,0,0.5,0.0,0.0,0.0,0
2014-04-03 01:50:00,4.00665104073e-05,0,0.5,0.0,0.0,0.0,0
2014-04-03 01:55:00,0.000360598593665,0,0.5,0.0,0.0,0.0,0
2014-04-03 02:00:00,0.000360598593665,0,0.5,0.0,0.0,0.0,0
2014-04-03 02:05:00,0.000380631848869,0,0.5,0.0,0.0,0.0,0
2014-04-03 02:10:00,0.000360598593665,0,0.5,0.0,0.0,0.0,0
2014-04-03 02:15:00,2.00332552036e-05,0,0.5,0.0,0.0,0.0,0
2014-04-03 02:20:00,0.000360598593665,0,0.5,0.0,0.0,0.0,0
2014-04-03 02:25:00,0.000360598593665,0,0.5,0.0,0.0,0.0,0
2014-04-03 02:30:00,4.00665104073e-05,0,0.5,0.0,0.0,0.0,0
2014-04-03 02:35:00,0.000360598593665,0,0.5,0.0,0.0,0.0,0
2014-04-03 02:40:00,0.000360598593665,0,0.5,0.0,0.0,0.0,0
2014-04-03 02:45:00,4.00665104073e-05,0,0.5,0.0,0.0,0.0,0
2014-04-03 02:50:00,0.000360598593665,0,0.5,0.0,0.0,0.0,0
2014-04-03 02:55:00,4.00665104073e-05,0,0.5,0.0,0.0,0.0,0
2014-04-03 03:00:00,0.000360598593665,0,0.5,0.0,0.0,0.0,0
2014-04-03 03:05:00,2.00332552036e-05,0,0.5,0.0,0.0,0.0,0
2014-04-03 03:10:00,0.000380631848869,0,0.5,0.0,0.0,0.0,0
2014-04-03 03:15:00,0.000380631848869,0,0.5,0.0,0.0,0.0,0
2014-04-03 03:20:00,4.00665104073e-05,0,0.5,0.0,0.0,0.0,0
2014-04-03 03:25:00,0.000360598593665,0,0.5,0.0,0.0,0.0,0
2014-04-03 03:30:00,0.000380631848869,0,0.5,0.0,0.0,0.0,0
2014-04-03 03:35:00,4.00665104073e-05,0,0.5,0.0,0.0,0.0,0
2014-04-03 03:40:00,0.000380631848869,0,0.5,0.0,0.0,0.0,0
2014-04-03 03:45:00,2.00332552036e-05,0,0.5,0.0,0.0,0.0,0
2014-04-03 03:50:00,0.000380631848869,0,0.5,0.0,0.0,0.0,0
2014-04-03 03:55:00,0.000380631848869,0,0.5,0.0,0.0,0.0,0
2014-04-03 04:00:00,2.00332552036e-05,0,0.5,0.0,0.0,0.0,0
2014-04-03 04:05:00,0.000380631848869,0,0.5,0.0,0.0,0.0,0
2014-04-03 04:10:00,4.00665104073e-05,0,0.5,0.0,0.0,0.0,0
2014-04-03 04:15:00,0.000360598593665,0,0.5,0.0,0.0,0.0,0
2014-04-03 04:20:00,0.000360598593665,0,0.5,0.0,0.0,0.0,0
2014-04-03 04:25:00,4.00665104073e-05,0,0.5,0.0,0.0,0.0,0
2014-04-03 04:30:00,0.000380631848869,0,0.5,0.0,0.0,0.0,0
2014-04-03 04:35:00,2.00332552036e-05,0,0.5,0.0,0.0,0.0,0
2014-04-03 04:40:00,0.000380631848869,0,0.5,0.0,0.0,0.0,0
2014-04-03 04:45:00,0.000360598593665,0,0.5,0.0,0.0,0.0,0
2014-04-03 04:50:00,4.00665104073e-05,0,0.5,0.0,0.0,0.0,0
2014-04-03 04:55:00,0.000380631848869,0,0.5,0.0,0.0,0.0,0
2014-04-03 05:00:00,0.000380631848869,0,0.5,0.0,0.0,0.0,0
2014-04-03 05:05:00,4.00665104073e-05,0,0.5,0.0,0.0,0.0,0
2014-04-03 05:10:00,0.276859586914,0,0.5,0.0,0.0,0.0,0
2014-04-03 05:15:00,0.600016026604,0,0.5,0.0,0.0,0.0,0
2014-04-03 05:20:00,0.000380631848869,0,0.5,0.0,0.0,0.0,0
2014-04-03 05:25:00,0.000360598593665,0,0.5,0.0,0.0,0.0,0
2014-04-03 05:30:00,0.000360598593665,0,0.5,0.0,0.0,0.0,0
2014-04-03 05:35:00,4.00665104073e-05,0,0.5,0.0,0.0,0.0,0
2014-04-03 05:40:00,0.000380631848869,0,0.5,0.0,0.0,0.0,0
2014-04-03 05:45:00,0.000380631848869,0,0.5,0.0,0.0,0.0,0
2014-04-03 05:50:00,4.00665104073e-05,0,0.5,0.0,0.0,0.0,0
2014-04-03 05:55:00,0.000380631848869,0,0.5,0.0,0.0,0.0,0
2014-04-03 06:00:00,0.145261133482,0,0.5,0.0,0.0,0.0,0
2014-04-03 06:05:00,0.929943706553,0,0.5,0.0,0.0,0.0,0
2014-04-03 06:10:00,0.889095899193,0,0.5,0.0,0.0,0.0,0
2014-04-03 06:15:00,0.916741791374,0,0.5,0.0,0.0,0.0,0
2014-04-03 06:20:00,0.360919125749,0,0.5,0.0,0.0,0.0,0
2014-04-03 06:25:00,0.000380631848869,0,0.5,0.0,0.0,0.0,0
2014-04-03 06:30:00,4.00665104073e-05,0,0.5,0.0,0.0,0.0,0
2014-04-03 06:35:00,0.417032273574,0,0.5,0.0,0.0,0.0,0
2014-04-03 06:40:00,0.895326241561,0,0.5,0.0,0.0,0.0,0
2014-04-03 06:45:00,0.948274135064,0,0.5,0.0,0.0,0.0,0
2014-04-03 06:50:00,0.848187992067,0,0.5,0.0,0.0,0.0,0
2014-04-03 06:55:00,0.138329627181,0,0.5,0.0,0.0,0.0,0
2014-04-03 07:00:00,0.000360598593665,0,0.5,0.0,0.0,0.0,0
2014-04-03 07:05:00,4.00665104073e-05,0,0.5,0.0,0.0,0.0,0
2014-04-03 07:10:00,0.000340565338462,0,0.5,0.0,0.0,0.0,0
2014-04-03 07:15:00,0.000360598593665,0,0.5,0.0,0.0,0.0,0
2014-04-03 07:20:00,0.000701163932127,0,0.5,0.0,0.0,0.0,0
2014-04-03 07:25:00,2.00332552036e-05,0,0.5,0.0,0.0,0.0,0
2014-04-03 07:30:00,0.000360598593665,0,0.5,0.0,0.0,0.0,0
2014-04-03 07:35:00,0.000380631848869,0,0.5,0.0,0.0,0.0,0
2014-04-03 07:40:00,0.000360598593665,0,0.5,0.0,0.0,0.0,0
2014-04-03 07:45:00,2.00332552036e-05,0,0.5,0.0,0.0,0.0,0
2014-04-03 07:50:00,0.000380631848869,0,0.5,0.0,0.0,0.0,0
2014-04-03 07:55:00,0.000360598593665,0,0.5,0.0,0.0,0.0,0
2014-04-03 08:00:00,0.851112847327,0,0.5,0.0,0.0,0.0,0
2014-04-03 08:05:00,0.852655407977,0,0.5,0.0,0.0,0.0,0
2014-04-03 08:10:00,0.928942043793,0,0.5,0.0,0.0,0.0,0
2014-04-03 08:15:00,0.634152693471,0,0.5,0.0,0.0,0.0,0
2014-04-03 08:20:00,0.000380631848869,0,0.5,0.0,0.0,0.0,0
2014-04-03 08:25:00,0.000360598593665,0,0.5,0.0,0.0,0.0,0
2014-04-03 08:30:00,4.00665104073e-05,0,0.5,0.0,0.0,0.0,0
2014-04-03 08:35:00,0.000360598593665,0,0.5,0.0,0.0,0.0,0
2014-04-03 08:40:00,0.000360598593665,0,0.5,0.0,0.0,0.0,0
2014-04-03 08:45:00,0.000380631848869,0,0.5,0.0,0.0,0.0,0
2014-04-03 08:50:00,0.818358475069,0,0.5,0.0,0.0,0.0,0
2014-04-03 08:55:00,0.834665544804,0,0.5,0.0,0.0,0.0,0
2014-04-03 09:00:00,0.942684856862,0,0.5,0.0,0.0,0.0,0
2014-04-03 09:05:00,0.689344311557,0,0.5,0.0,0.0,0.0,0
2014-04-03 09:10:00,0.000360598593665,0,0.5,0.0,0.0,0.0,0
2014-04-03 09:15:00,0.000380631848869,0,0.5,0.0,0.0,0.0,0
2014-04-03 09:20:00,2.00332552036e-05,0,0.5,0.0,0.0,0.0,0
2014-04-03 09:25:00,0.000380631848869,0,0.5,0.0,0.0,0.0,0
2014-04-03 09:30:00,0.000380631848869,0,0.5,0.0,0.0,0.0,0
2014-04-03 09:35:00,0.000360598593665,0,0.5,0.0,0.0,0.0,0
2014-04-03 09:40:00,0.000360598593665,0,0.5,0.0,0.0,0.0,0
2014-04-03 09:45:00,4.00665104073e-05,0,0.5,0.0,0.0,0.0,0
2014-04-03 09:50:00,0.000380631848869,0,0.5,0.0,0.0,0.0,0
2014-04-03 09:55:00,4.00665104073e-05,0,0.5,0.0,0.0,0.0,0
2014-04-03 10:00:00,0.00204339203077,0,0.5,0.0,0.0,0.0,0
2014-04-03 10:05:00,0.000360598593665,0,0.5,0.0,0.0,0.0,0
2014-04-03 10:10:00,0.000360598593665,0,0.5,0.0,0.0,0.0,0
2014-04-03 10:15:00,0.000380631848869,0,0.5,0.0,0.0,0.0,0
2014-04-03 10:20:00,4.00665104073e-05,0,0.5,0.0,0.0,0.0,0
2014-04-03 10:25:00,0.000380631848869,0,0.5,0.0,0.0,0.0,0
2014-04-03 10:30:00,0.000360598593665,0,0.5,0.0,0.0,0.0,0
2014-04-03 10:35:00,4.00665104073e-05,0,0.5,0.0,0.0,0.0,0
2014-04-03 10:40:00,0.000380631848869,0,0.5,0.0,0.0,0.0,0
2014-04-03 10:45:00,0.000380631848869,0,0.5,0.0,0.0,0.0,0
2014-04-03 10:50:00,4.00665104073e-05,0,0.5,0.0,0.0,0.0,0
2014-04-03 10:55:00,0.000360598593665,0,0.5,0.0,0.0,0.0,0
2014-04-03 11:00:00,4.00665104073e-05,0,0.5,0.0,0.0,0.0,0
2014-04-03 11:05:00,0.000360598593665,0,0.5,0.0,0.0,0.0,0
2014-04-03 11:10:00,0.000360598593665,0,0.5,0.0,0.0,0.0,0
2014-04-03 11:15:00,4.00665104073e-05,0,0.5,0.0,0.0,0.0,0
2014-04-03 11:20:00,0.000360598593665,0,0.5,0.0,0.0,0.0,0
2014-04-03 11:25:00,4.00665104073e-05,0,0.5,0.0,0.0,0.0,0
2014-04-03 11:30:00,0.000360598593665,0,0.5,0.0,0.0,0.0,0
2014-04-03 11:35:00,0.000380631848869,0,0.5,0.0,0.0,0.0,0
2014-04-03 11:40:00,4.00665104073e-05,0,0.5,0.0,0.0,0.0,0
2014-04-03 11:45:00,0.000380631848869,0,0.5,0.0,0.0,0.0,0
2014-04-03 11:50:00,0.000360598593665,0,0.5,0.0,0.0,0.0,0
2014-04-03 11:55:00,4.00665104073e-05,0,0.5,0.0,0.0,0.0,0
2014-04-03 12:00:00,0.000380631848869,0,0.5,0.0,0.0,0.0,0
2014-04-03 12:05:00,0.000340565338462,0,0.5,0.0,0.0,0.0,0
2014-04-03 12:10:00,4.00665104073e-05,0,0.5,0.0,0.0,0.0,0
2014-04-03 12:15:00,0.000360598593665,0,0.5,0.0,0.0,0.0,0
2014-04-03 12:20:00,0.000360598593665,0,0.5,0.0,0.0,0.0,0
2014-04-03 12:25:00,2.00332552036e-05,0,0.5,0.0,0.0,0.0,0
2014-04-03 12:30:00,0.000380631848869,0,0.5,0.0,0.0,0.0,0
2014-04-03 12:35:00,4.00665104073e-05,0,0.5,0.0,0.0,0.0,0
2014-04-03 12:40:00,0.000360598593665,0,0.5,0.0,0.0,0.0,0
2014-04-03 12:45:00,0.000380631848869,0,0.5,0.0,0.0,0.0,0
2014-04-03 12:50:00,4.00665104073e-05,0,0.5,0.0,0.0,0.0,0
2014-04-03 12:55:00,0.000380631848869,0,0.5,0.0,0.0,0.0,0
2014-04-03 13:00:00,2.00332552036e-05,0,0.5,0.0,0.0,0.0,0
2014-04-03 13:05:00,0.000340565338462,0,0.5,0.0,0.0,0.0,0
2014-04-03 13:10:00,0.000380631848869,0,0.5,0.0,0.0,0.0,0
2014-04-03 13:15:00,4.00665104073e-05,0,0.5,0.0,0.0,0.0,0
2014-04-03 13:20:00,0.000360598593665,0,0.5,0.0,0.0,0.0,0
2014-04-03 13:25:00,0.000360598593665,0,0.5,0.0,0.0,0.0,0
2014-04-03 13:30:00,2.00332552036e-05,0,0.5,0.0,0.0,0.0,0
2014-04-03 13:35:00,0.000380631848869,0,0.5,0.0,0.0,0.0,0
2014-04-03 13:40:00,0.000360598593665,0,0.5,0.0,0.0,0.0,0
2014-04-03 13:45:00,4.00665104073e-05,0,0.5,0.0,0.0,0.0,0
2014-04-03 13:50:00,0.000360598593665,0,0.5,0.0,0.0,0.0,0
2014-04-03 13:55:00,0.000340565338462,0,0.5,0.0,0.0,0.0,0
2014-04-03 14:00:00,2.00332552036e-05,0,0.5,0.0,0.0,0.0,0
2014-04-03 14:05:00,0.000380631848869,0,0.5,0.0,0.0,0.0,0
2014-04-03 14:10:00,0.000360598593665,0,0.5,0.0,0.0,0.0,0
2014-04-03 14:15:00,0.000360598593665,0,0.5,0.0,0.0,0.0,0
2014-04-03 14:20:00,2.00332552036e-05,0,0.5,0.0,0.0,0.0,0
2014-04-03 14:25:00,0.000380631848869,0,0.5,0.0,0.0,0.0,0
2014-04-03 14:30:00,0.000360598593665,0,0.5,0.0,0.0,0.0,0
2014-04-03 14:35:00,4.00665104073e-05,0,0.5,0.0,0.0,0.0,0
2014-04-03 14:40:00,0.000360598593665,0,0.5,0.0,0.0,0.0,0
2014-04-03 14:45:00,0.000380631848869,0,0.5,0.0,0.0,0.0,0
2014-04-03 14:50:00,0.000340565338462,0,0.5,0.0,0.0,0.0,0
2014-04-03 14:55:00,4.00665104073e-05,0,0.5,0.0,0.0,0.0,0
2014-04-03 15:00:00,0.000360598593665,0,0.5,0.0,0.0,0.0,0
2014-04-03 15:05:00,0.000360598593665,0,0.5,0.0,0.0,0.0,0
2014-04-03 15:10:00,2.00332552036e-05,0,0.5,0.0,0.0,0.0,0
2014-04-03 15:15:00,0.000340565338462,0,0.5,0.0,0.0,0.0,0
2014-04-03 15:20:00,0.000380631848869,0,0.5,0.0,0.0,0.0,0
2014-04-03 15:25:00,4.00665104073e-05,0,0.5,0.0,0.0,0.0,0
2014-04-03 15:30:00,0.000360598593665,0,0.5,0.0,0.0,0.0,0
2014-04-03 15:35:00,0.000360598593665,0,0.5,0.0,0.0,0.0,0
2014-04-03 15:40:00,4.00665104073e-05,0,0.5,0.0,0.0,0.0,0
2014-04-03 15:45:00,0.000360598593665,0,0.5,0.0,0.0,0.0,0
2014-04-03 15:50:00,0.000360598593665,0,0.5,0.0,0.0,0.0,0
2014-04-03 15:55:00,2.00332552036e-05,0,0.5,0.0,0.0,0.0,0
2014-04-03 16:00:00,0.000380631848869,0,0.5,0.0,0.0,0.0,0
2014-04-03 16:05:00,0.000380631848869,0,0.5,0.0,0.0,0.0,0
2014-04-03 16:10:00,4.00665104073e-05,0,0.5,0.0,0.0,0.0,0
2014-04-03 16:15:00,0.000380631848869,0,0.5,0.0,0.0,0.0,0
2014-04-03 16:20:00,0.000340565338462,0,0.5,0.0,0.0,0.0,0
2014-04-03 16:25:00,0.0,0,0.5,0.0,0.0,0.0,0
2014-04-03 16:30:00,0.000380631848869,0,0.5,0.0,0.0,0.0,0
2014-04-03 16:35:00,0.701264098403,0,0.5,0.0,0.0,0.0,0
2014-04-03 16:40:00,0.845243103552,0,0.5,0.0,0.0,0.0,0
2014-04-03 16:45:00,0.964921770138,0,0.5,0.0,0.0,0.0,0
2014-04-03 16:50:00,0.713424284312,0,0.5,0.0,0.0,0.0,0
2014-04-03 16:55:00,0.0424705010317,0,0.5,0.0,0.0,0.0,0
2014-04-03 17:00:00,0.000360598593665,0,0.5,0.0,0.0,0.0,0
2014-04-03 17:05:00,0.824248252098,0,0.5,0.0,0.0,0.0,0
2014-04-03 17:10:00,0.854278101649,0,0.5,0.0,0.0,0.0,0
2014-04-03 17:15:00,0.928280946371,0,0.5,0.0,0.0,0.0,0
2014-04-03 17:20:00,0.667748462448,0,0.5,0.0,0.0,0.0,0
2014-04-03 17:25:00,0.000380631848869,0,0.5,0.0,0.0,0.0,0
2014-04-03 17:30:00,0.000340565338462,0,0.5,0.0,0.0,0.0,0
2014-04-03 17:35:00,0.000380631848869,0,0.5,0.0,0.0,0.0,0
2014-04-03 17:40:00,0.000380631848869,0,0.5,0.0,0.0,0.0,0
2014-04-03 17:45:00,4.00665104073e-05,0,0.5,0.0,0.0,0.0,0
2014-04-03 17:50:00,0.000360598593665,0,0.5,0.0,0.0,0.0,0
2014-04-03 17:55:00,0.000340565338462,0,0.5,0.0,0.0,0.0,0
2014-04-03 18:00:00,0.000360598593665,0,0.5,0.0,0.0,0.0,0
2014-04-03 18:05:00,2.00332552036e-05,0,0.5,0.0,0.0,0.0,0
2014-04-03 18:10:00,0.000360598593665,0,0.5,0.0,0.0,0.0,0
2014-04-03 18:15:00,0.00240399062444,0,0.5,0.0,0.0,0.0,0
2014-04-03 18:20:00,0.000340565338462,0,0.5,0.0,0.0,0.0,0
2014-04-03 18:25:00,0.000340565338462,0,0.5,0.0,0.0,0.0,0
2014-04-03 18:30:00,0.0,0,0.5,0.0,0.0,0.0,0
2014-04-03 18:35:00,0.000340565338462,0,0.5,0.0,0.0,0.0,0
2014-04-03 18:40:00,0.000360598593665,0,0.5,0.0,0.0,0.0,0
2014-04-03 18:45:00,0.000360598593665,0,0.5,0.0,0.0,0.0,0
2014-04-03 18:50:00,0.000360598593665,0,0.5,0.0,0.0,0.0,0
2014-04-03 18:55:00,0.764008253701,0,0.5,0.0,0.0,0.0,0
2014-04-03 19:00:00,0.837770699361,0,0.5,0.0,0.0,0.0,0
2014-04-03 19:05:00,0.943245788008,0,0.5,0.0,0.0,0.0,0
2014-04-03 19:10:00,0.732195444438,0,0.5,0.0,0.0,0.0,0
2014-04-03 19:15:00,0.0160466374181,0,0.5,0.0,0.0,0.0,0
2014-04-03 19:20:00,0.000380631848869,0,0.5,0.0,0.0,0.0,0
2014-04-03 19:25:00,0.000360598593665,0,0.5,0.0,0.0,0.0,0
2014-04-03 19:30:00,2.00332552036e-05,0,0.5,0.0,0.0,0.0,0
2014-04-03 19:35:00,0.000380631848869,0,0.5,0.0,0.0,0.0,0
2014-04-03 19:40:00,0.000360598593665,0,0.5,0.0,0.0,0.0,0
2014-04-03 19:45:00,0.000360598593665,0,0.5,0.0,0.0,0.0,0
2014-04-03 19:50:00,0.000340565338462,0,0.5,0.0,0.0,0.0,0
2014-04-03 19:55:00,4.00665104073e-05,0,0.5,0.0,0.0,0.0,0
2014-04-03 20:00:00,0.000380631848869,0,0.5,0.0,0.0,0.0,0
2014-04-03 20:05:00,0.000340565338462,0,0.5,0.0,0.0,0.0,0
2014-04-03 20:10:00,0.351122863954,0,0.5,0.0,0.0,0.0,0
2014-04-03 20:15:00,0.925115692049,0,0.5,0.0,0.0,0.0,0
2014-04-03 20:20:00,0.892201053749,0,0.5,0.0,0.0,0.0,0
2014-04-03 20:25:00,0.881262896408,0,0.5,0.0,0.0,0.0,0
2014-04-03 20:30:00,0.287176713344,0,0.5,0.0,0.0,0.0,0
2014-04-03 20:35:00,0.000360598593665,0,0.5,0.0,0.0,0.0,0
2014-04-03 20:40:00,2.00332552036e-05,0,0.5,0.0,0.0,0.0,0
2014-04-03 20:45:00,0.000380631848869,0,0.5,0.0,0.0,0.0,0
2014-04-03 20:50:00,0.000360598593665,0,0.5,0.0,0.0,0.0,0
2014-04-03 20:55:00,0.000340565338462,0,0.5,0.0,0.0,0.0,0
2014-04-03 21:00:00,0.000340565338462,0,0.5,0.0,0.0,0.0,0
2014-04-03 21:05:00,2.00332552036e-05,0,0.5,0.0,0.0,0.0,0
2014-04-03 21:10:00,0.000360598593665,0,0.5,0.0,0.0,0.0,0
2014-04-03 21:15:00,0.000340565338462,0,0.5,0.0,0.0,0.0,0
2014-04-03 21:20:00,0.000360598593665,0,0.5,0.0,0.0,0.0,0
2014-04-03 21:25:00,0.570406875413,0,0.5,0.0,0.0,0.0,0
2014-04-03 21:30:00,0.854718833263,0,0.5,0.0,0.0,0.0,0
2014-04-03 21:35:00,0.974637898912,0,0.5,0.0,0.0,0.0,0
2014-04-03 21:40:00,0.789570687341,0,0.5,0.0,0.0,0.0,0
2014-04-03 21:45:00,0.75361099425,0,0.5,0.0,0.0,0.0,0
2014-04-03 21:50:00,0.84207784923,0,0.5,0.0,0.0,0.0,0
2014-04-03 21:55:00,0.97539916261,0,0.5,0.0,0.0,0.0,0
2014-04-03 22:00:00,0.752869763808,0,0.5,0.0,0.0,0.0,0
2014-04-03 22:05:00,0.0828174770118,0,0.5,0.0,0.0,0.0,0
2014-04-03 22:10:00,0.0098964280706,0,0.5,0.0,0.0,0.0,0
2014-04-03 22:15:00,0.000340565338462,0,0.5,0.0,0.0,0.0,0
2014-04-03 22:20:00,2.00332552036e-05,0,0.5,0.0,0.0,0.0,0
2014-04-03 22:25:00,0.000380631848869,0,0.5,0.0,0.0,0.0,0
2014-04-03 22:30:00,0.000340565338462,0,0.5,0.0,0.0,0.0,0
2014-04-03 22:35:00,0.000380631848869,0,0.5,0.0,0.0,0.0,0
2014-04-03 22:40:00,4.00665104073e-05,0,0.5,0.0,0.0,0.0,0
2014-04-03 22:45:00,0.000340565338462,0,0.711988567832,0.0,0.0,0.0,0
2014-04-03 22:50:00,0.000380631848869,0,0.824815394868,0.0,0.0,0.0,0
2014-04-03 22:55:00,0.000360598593665,0,0.835202327905,0.0,0.0,0.0,0
2014-04-03 23:00:00,0.0177093976,0,0.834235605349,0.0,0.0,0.0,0
2014-04-03 23:05:00,0.991165334455,0,0.683568180347,0.0,0.0,0.0,0
2014-04-03 23:10:00,0.856561892742,0,0.520425534794,0.0,0.0,0.0,0
2014-04-03 23:15:00,0.926538053168,0,0.659067326305,0.0,0.0,0.0,0
2014-04-03 23:20:00,0.510767874672,0,0.746675505628,0.0,0.0,0.0,0
2014-04-03 23:25:00,0.000380631848869,0,0.746675505628,0.0,0.0,0.0,0
2014-04-03 23:30:00,0.000380631848869,0,0.746729765239,0.0,0.0,0.0,0
2014-04-03 23:35:00,2.00332552036e-05,0,0.746678697539,0.0,0.0,0.0,0
2014-04-03 23:40:00,0.000360598593665,0,0.746675505628,0.0,0.0,0.0,0
2014-04-03 23:45:00,0.000380631848869,0,0.753587094547,0.0,0.0,0.0,0
2014-04-03 23:50:00,0.000360598593665,0,0.750774408765,0.0,0.0,0.0,0
2014-04-03 23:55:00,4.00665104073e-05,0,0.567063201677,0.0,0.0,0.0,0
2014-04-04 00:00:00,0.000380631848869,0,0.606402714641,0.0,0.0,0.0,0
2014-04-04 00:05:00,0.000380631848869,0,0.771767711664,0.0,0.0,0.0,0
2014-04-04 00:10:00,0.000360598593665,0,0.842865152092,0.0,0.0,0.0,0
2014-04-04 00:15:00,0.451168940441,0,0.780901143433,0.0,0.0,0.0,0
2014-04-04 00:20:00,0.884808782579,0,0.626237296061,0.0,0.0,0.0,0
2014-04-04 00:25:00,0.928922010537,0,0.561285173982,0.0,0.0,0.0,0
2014-04-04 00:30:00,0.878017509065,0,0.727109375243,0.0,0.0,0.0,0
2014-04-04 00:35:00,0.166997215378,0,0.754744855142,0.0,0.0,0.0,0
2014-04-04 00:40:00,0.000380631848869,0,0.754748085009,0.0,0.0,0.0,0
2014-04-04 00:45:00,4.00665104073e-05,0,0.754748085009,0.0,0.0,0.0,0
2014-04-04 00:50:00,0.000380631848869,0,0.754748085009,0.0,0.0,0.0,0
2014-04-04 00:55:00,0.000360598593665,0,0.754744855142,0.0,0.0,0.0,0
2014-04-04 01:00:00,2.00332552036e-05,0,0.754689943901,0.0,0.0,0.0,0
2014-04-04 01:05:00,0.000360598593665,0,0.676613415108,0.0,0.0,0.0,0
2014-04-04 01:10:00,0.000380631848869,0,0.501960123522,0.0,0.0,0.0,0
2014-04-04 01:15:00,0.0137227798145,0,0.678746123118,0.0,0.0,0.0,0
2014-04-04 01:20:00,4.00665104073e-05,0,0.819700724551,0.0,0.0,0.0,0
2014-04-04 01:25:00,0.000380631848869,0,0.841254893817,0.0,0.0,0.0,0
2014-04-04 01:30:00,4.00665104073e-05,0,0.841297145542,0.0,0.0,0.0,0
2014-04-04 01:35:00,0.000380631848869,0,0.841254893817,0.0,0.0,0.0,0
2014-04-04 01:40:00,0.000360598593665,0,0.841257379416,0.0,0.0,0.0,0
2014-04-04 01:45:00,4.00665104073e-05,0,0.841297145542,0.0,0.0,0.0,0
2014-04-04 01:50:00,0.000721197187331,0,0.841210148659,0.0,0.0,0.0,0
2014-04-04 01:55:00,4.00665104073e-05,0,0.841249922541,0.0,0.0,0.0,0
2014-04-04 02:00:00,0.000380631848869,0,0.841249922541,0.0,0.0,0.0,0
2014-04-04 02:05:00,0.000360598593665,0,0.842902184649,0.0,0.0,0.0,0
2014-04-04 02:10:00,2.00332552036e-05,0,0.842904653282,0.0,0.0,0.0,0
2014-04-04 02:15:00,0.000380631848869,0,0.842904653282,0.0,0.0,0.0,0
2014-04-04 02:20:00,0.000380631848869,0,0.842862683051,0.0,0.0,0.0,0
2014-04-04 02:25:00,2.00332552036e-05,0,0.842907121889,0.0,0.0,0.0,0
2014-04-04 02:30:00,0.000360598593665,0,0.842907121889,0.0,0.0,0.0,0
2014-04-04 02:35:00,0.000360598593665,0,0.842867621108,0.0,0.0,0.0,0
2014-04-04 02:40:00,0.000360598593665,0,0.842912059028,0.0,0.0,0.0,0
2014-04-04 02:45:00,0.000360598593665,0,0.842872559063,0.0,0.0,0.0,0
2014-04-04 02:50:00,0.000380631848869,0,0.842872559063,0.0,0.0,0.0,0
2014-04-04 02:55:00,0.000380631848869,0,0.842870090098,0.0,0.0,0.0,0
2014-04-04 03:00:00,2.00332552036e-05,0,0.842870090098,0.0,0.0,0.0,0
2014-04-04 03:05:00,0.000380631848869,0,0.842870090098,0.0,0.0,0.0,0
2014-04-04 03:10:00,0.000360598593665,0,0.842872559063,0.0,0.0,0.0,0
2014-04-04 03:15:00,4.00665104073e-05,0,0.842870090098,0.0,0.0,0.0,0
2014-04-04 03:20:00,0.000380631848869,0,0.842867621108,0.0,0.0,0.0,0
2014-04-04 03:25:00,0.000340565338462,0,0.842870090098,0.0,0.0,0.0,0
2014-04-04 03:30:00,0.000380631848869,0,0.842867621108,0.0,0.0,0.0,0
2014-04-04 03:35:00,2.00332552036e-05,0,0.842909590471,0.0,0.0,0.0,0
2014-04-04 03:40:00,0.000380631848869,0,0.842909590471,0.0,0.0,0.0,0
2014-04-04 03:45:00,4.00665104073e-05,0,0.842951552462,0.0,0.0,0.0,0
2014-04-04 03:50:00,0.000380631848869,0,0.842907121889,0.0,0.0,0.0,0
2014-04-04 03:55:00,0.000360598593665,0,0.842909590471,0.0,0.0,0.0,0
2014-04-04 04:00:00,4.00665104073e-05,0,0.842949084313,0.0,0.0,0.0,0
2014-04-04 04:05:00,0.000360598593665,0,0.842909590471,0.0,0.0,0.0,0
2014-04-04 04:10:00,4.00665104073e-05,0,0.842951552462,0.0,0.0,0.0,0
2014-04-04 04:15:00,0.000360598593665,0,0.842949084313,0.0,0.0,0.0,0
2014-04-04 04:20:00,0.000360598593665,0,0.842951552462,0.0,0.0,0.0,0
2014-04-04 04:25:00,4.00665104073e-05,0,0.842949084313,0.0,0.0,0.0,0
2014-04-04 04:30:00,0.000380631848869,0,0.842949084313,0.0,0.0,0.0,0
2014-04-04 04:35:00,4.00665104073e-05,0,0.842949084313,0.0,0.0,0.0,0
2014-04-04 04:40:00,0.000380631848869,0,0.842949084313,0.0,0.0,0.0,0
2014-04-04 04:45:00,0.000380631848869,0,0.84294661614,0.0,0.0,0.0,0
2014-04-04 04:50:00,4.00665104073e-05,0,0.84294661614,0.0,0.0,0.0,0
2014-04-04 04:55:00,0.000380631848869,0,0.84294414794,0.0,0.0,0.0,0
2014-04-04 05:00:00,4.00665104073e-05,0,0.84294414794,0.0,0.0,0.0,0
2014-04-04 05:05:00,0.00170282669231,0,0.842778720469,0.0,0.0,0.0,0
2014-04-04 05:10:00,0.000360598593665,0,0.842778720469,0.0,0.0,0.0,0
2014-04-04 05:15:00,0.000360598593665,0,0.84273919846,0.0,0.0,0.0,0
2014-04-04 05:20:00,4.00665104073e-05,0,0.842781190377,0.0,0.0,0.0,0
2014-04-04 05:25:00,0.000360598593665,0,0.842741668777,0.0,0.0,0.0,0
2014-04-04 05:30:00,0.000380631848869,0,0.842741668777,0.0,0.0,0.0,0
2014-04-04 05:35:00,0.000340565338462,0,0.842746609334,0.0,0.0,0.0,0
2014-04-04 05:40:00,0.000380631848869,0,0.842704611344,0.0,0.0,0.0,0
2014-04-04 05:45:00,0.000360598593665,0,0.842707082019,0.0,0.0,0.0,0
2014-04-04 05:50:00,4.00665104073e-05,0,0.842707082019,0.0,0.0,0.0,0
2014-04-04 05:55:00,0.000380631848869,0,0.842870090098,0.0,0.0,0.0,0
2014-04-04 06:00:00,0.0975619528417,0,0.830590359139,0.0,0.0,0.0,0
2014-04-04 06:05:00,2.00332552036e-05,0,0.830634431412,0.0,0.0,0.0,0
2014-04-04 06:10:00,0.000380631848869,0,0.830590359139,0.0,0.0,0.0,0
2014-04-04 06:15:00,0.74864274696,0,0.71666061843,0.0,0.0,0.0,0
2014-04-04 06:20:00,0.867500050083,0,0.551117611302,0.0,0.0,0.0,0
2014-04-04 06:25:00,0.937957008634,0,0.637623519861,0.0,0.0,0.0,0
2014-04-04 06:30:00,0.726325700663,0,0.765533253123,0.0,0.0,0.0,0
2014-04-04 06:35:00,0.0414287717611,0,0.771944522361,0.0,0.0,0.0,0
2014-04-04 06:40:00,0.000380631848869,0,0.771997273508,0.0,0.0,0.0,0
2014-04-04 06:45:00,2.00332552036e-05,0,0.771941419139,0.0,0.0,0.0,0
2014-04-04 06:50:00,0.000360598593665,0,0.756607899332,0.0,0.0,0.0,0
2014-04-04 06:55:00,4.00665104073e-05,0,0.756611115952,0.0,0.0,0.0,0
2014-04-04 07:00:00,0.000380631848869,0,0.756611115952,0.0,0.0,0.0,0
2014-04-04 07:05:00,0.000380631848869,0,0.622442528826,0.0,0.0,0.0,0
2014-04-04 07:10:00,4.00665104073e-05,0,0.55279918189,0.0,0.0,0.0,0
2014-04-04 07:15:00,0.000380631848869,0,0.730166086483,0.0,0.0,0.0,0
2014-04-04 07:20:00,2.00332552036e-05,0,0.837835743866,0.0,0.0,0.0,0
2014-04-04 07:25:00,0.000360598593665,0,0.842949084313,0.0,0.0,0.0,0
2014-04-04 07:30:00,2.00332552036e-05,0,0.842993507079,0.0,0.0,0.0,0
2014-04-04 07:35:00,0.000380631848869,0,0.842949084313,0.0,0.0,0.0,0
2014-04-04 07:40:00,4.00665104073e-05,0,0.842988571624,0.0,0.0,0.0,0
2014-04-04 07:45:00,0.000380631848869,0,0.84294661614,0.0,0.0,0.0,0
2014-04-04 07:50:00,4.00665104073e-05,0,0.842988571624,0.0,0.0,0.0,0
2014-04-04 07:55:00,2.00332552036e-05,0,0.843032987042,0.0,0.0,0.0,0