timestamp,value,is_anomaly,anomaly_score
2014-04-10 00:02:00,0.0217603220025,0,0.5
2014-04-10 00:07:00,0.0111002798654,0,0.5
2014-04-10 00:12:00,0.0372944247036,0,0.5
2014-04-10 00:17:00,0.0215402031383,0,0.5
2014-04-10 00:22:00,0.0267916103267,0,0.5
2014-04-10 00:27:00,0.0373258702557,0,0.5
2014-04-10 00:32:00,0.0213200842741,0,0.5
2014-04-10 00:37:00,0.0321687997233,0,0.5
2014-04-10 00:42:00,0.0320744630672,0,0.5
2014-04-10 00:47:00,0.0163202415018,0,0.5
2014-04-10 00:52:00,0.0111002798654,0,0.5
2014-04-10 00:57:00,0.0380176724002,0,0.5
2014-04-10 01:02:00,0.0110688343134,0,0.5
2014-04-10 01:07:00,0.0372944247036,0,0.5
2014-04-10 01:12:00,0.0372944247036,0,0.5
2014-04-10 01:17:00,0.0273576302632,0,0.5
2014-04-10 01:22:00,0.0163202415018,0,0.5
2014-04-10 01:27:00,0.0425143863401,0,0.5
2014-04-10 01:32:00,0.0268230558787,0,0.5
2014-04-10 01:37:00,0.0268545014308,0,0.5
2014-04-10 01:42:00,0.0215716486903,0,0.5
2014-04-10 01:47:00,0.0267916103267,0,0.5
2014-04-10 01:52:00,0.0110688343134,0,0.5
2014-04-10 01:57:00,0.0372629791516,0,0.5
2014-04-10 02:02:00,0.0163202415018,0,0.5
2014-04-10 02:07:00,0.0163831326059,0,0.5
2014-04-10 02:12:00,0.0320744630672,0,0.5
2014-04-10 02:17:00,0.0268230558787,0,0.5
2014-04-10 02:22:00,0.0263513725983,0,0.5
2014-04-10 02:27:00,0.0378918901921,0,0.5
2014-04-10 02:32:00,0.0163202415018,0,0.5
2014-04-10 02:37:00,0.0268230558787,0,0.5
2014-04-10 02:42:00,0.0215716486903,0,0.5
2014-04-10 02:47:00,0.0320430175152,0,0.5
2014-04-10 02:52:00,0.00584887267696,0,0.5
2014-04-10 02:57:00,0.0268230558787,0,0.5
2014-04-10 03:02:00,0.0319172353071,0,0.5
2014-04-10 03:07:00,0.0215716486903,0,0.5
2014-04-10 03:12:00,0.0265714914625,0,0.5
2014-04-10 03:17:00,0.025942580422,0,0.5
2014-04-10 03:22:00,0.0326719285557,0,0.5
2014-04-10 03:27:00,0.0268230558787,0,0.5
2014-04-10 03:32:00,0.0215716486903,0,0.5
2014-04-10 03:37:00,0.0324832552435,0,0.5
2014-04-10 03:42:00,0.0268230558787,0,0.5
2014-04-10 03:47:00,0.0216030942423,0,0.5
2014-04-10 03:52:00,0.0171063803025,0,0.5
2014-04-10 03:57:00,0.0209741832018,0,0.5
2014-04-10 04:02:00,0.0215402031383,0,0.5
2014-04-10 04:07:00,0.0216030942423,0,0.5
2014-04-10 04:12:00,0.0215716486903,0,0.5
2014-04-10 04:17:00,0.0110688343134,0,0.5
2014-04-10 04:22:00,0.0268545014308,0,0.5
2014-04-10 04:27:00,0.0169805980944,0,0.5
2014-04-10 04:32:00,0.0215402031383,0,0.5
2014-04-10 04:37:00,0.0162887959498,0,0.5
2014-04-10 04:42:00,0.0163202415018,0,0.5
2014-04-10 04:47:00,0.0209112920977,0,0.5
2014-04-10 04:52:00,0.0171063803025,0,0.5
2014-04-10 04:57:00,0.0263828181504,0,0.5
2014-04-10 05:02:00,0.0110688343134,0,0.5
2014-04-10 05:07:00,0.0155655482532,0,0.5
2014-04-10 05:12:00,0.0163202415018,0,0.5
2014-04-10 05:17:00,0.0215716486903,0,0.5
2014-04-10 05:22:00,0.0215716486903,0,0.5
2014-04-10 05:27:00,0.0111002798654,0,0.5
2014-04-10 05:32:00,0.0215402031383,0,0.5
2014-04-10 05:37:00,0.0215716486903,0,0.5
2014-04-10 05:42:00,0.0320744630672,0,0.5
2014-04-10 05:47:00,0.0163202415018,0,0.5
2014-04-10 05:52:00,0.0163516870539,0,0.5
2014-04-10 05:57:00,0.0267916103267,0,0.5
2014-04-10 06:02:00,0.0268230558787,0,0.5
2014-04-10 06:07:00,0.0111317254174,0,0.5
2014-04-10 06:12:00,0.0163202415018,0,0.5
2014-04-10 06:17:00,0.0214773120342,0,0.5
2014-04-10 06:22:00,0.022452124147,0,0.5
2014-04-10 06:27:00,0.0315713342348,0,0.5
2014-04-10 06:32:00,0.0276091946794,0,0.5
2014-04-10 06:37:00,0.0106914876891,0,0.5
2014-04-10 06:42:00,0.0268230558787,0,0.5
2014-04-10 06:47:00,0.0111002798654,0,0.5
2014-04-10 06:52:00,0.0273261847112,0,0.5
2014-04-10 06:57:00,0.0215716486903,0,0.5
2014-04-10 07:02:00,0.0215716486903,0,0.5
2014-04-10 07:07:00,0.0163516870539,0,0.5
2014-04-10 07:12:00,0.0215716486903,0,0.5
2014-04-10 07:17:00,0.0174837269268,0,0.5
2014-04-10 07:22:00,0.0210685198579,0,0.5
2014-04-10 07:27:00,0.0163202415018,0,0.5
2014-04-10 07:32:00,0.0215716486903,0,0.5
2014-04-10 07:37:00,0.0110373887614,0,0.5
2014-04-10 07:42:00,0.0215716486903,0,0.5
2014-04-10 07:47:00,0.0208169554417,0,0.5
2014-04-10 07:52:00,0.053017200717,0,0.5
2014-04-10 07:57:00,0.0215716486903,0,0.5
2014-04-10 08:02:00,0.0112575076255,0,0.5
2014-04-10 08:07:00,0.0163516870539,0,0.5
2014-04-10 08:12:00,0.0215716486903,0,0.5
2014-04-10 08:17:00,0.0111002798654,0,0.5
2014-04-10 08:22:00,0.0320744630672,0,0.5
2014-04-10 08:27:00,0.0228923618754,0,0.5
2014-04-10 08:32:00,0.0160057859816,0,0.5
2014-04-10 08:37:00,0.0111002798654,0,0.5
2014-04-10 08:42:00,0.0215716486903,0,0.5
2014-04-10 08:47:00,0.00584887267696,0,0.5
2014-04-10 08:52:00,0.0163202415018,0,0.5
2014-04-10 08:57:00,0.0268230558787,0,0.5
2014-04-10 09:02:00,0.0163202415018,0,0.5
2014-04-10 09:07:00,0.0261312537342,0,0.5
2014-04-10 09:12:00,0.0215716486903,0,0.5
2014-04-10 09:17:00,0.0119178642181,0,0.5
2014-04-10 09:22:00,0.0215716486903,0,0.5
2014-04-10 09:27:00,0.0161944592937,0,0.5
2014-04-10 09:32:00,0.0108487154492,0,0.5
2014-04-10 09:37:00,0.0163202415018,0,0.5
2014-04-10 09:42:00,0.0111946165215,0,0.5
2014-04-10 09:47:00,0.0111002798654,0,0.5
2014-04-10 09:52:00,0.0163202415018,0,0.5
2014-04-10 09:57:00,0.00581742712493,0,0.5
2014-04-10 10:02:00,0.0267916103267,0,0.5
2014-04-10 10:07:00,0.0163516870539,0,0.5
2014-04-10 10:12:00,0.0163202415018,0,0.5
2014-04-10 10:17:00,0.0110688343134,0,0.5
2014-04-10 10:22:00,0.0109116065533,0,0.5
2014-04-10 10:27:00,0.0163516870539,0,0.5
2014-04-10 10:32:00,0.0215716486903,0,0.5
2014-04-10 10:37:00,0.0110688343134,0,0.5
2014-04-10 10:42:00,0.0215716486903,0,0.5
2014-04-10 10:47:00,0.0103455866168,0,0.5
2014-04-10 10:52:00,0.00581742712493,0,0.5
2014-04-10 10:57:00,0.0163202415018,0,0.5
2014-04-10 11:02:00,0.0163202415018,0,0.5
2014-04-10 11:07:00,0.0111002798654,0,0.5
2014-04-10 11:12:00,0.0166975881262,0,0.5
2014-04-10 11:17:00,0.0103455866168,0,0.5
2014-04-10 11:22:00,0.0268230558787,0,0.5
2014-04-10 11:27:00,0.00569164491683,0,0.5
2014-04-10 11:32:00,0.0172007169586,0,0.5
2014-04-10 11:37:00,0.0106914876891,0,0.5
2014-04-10 11:42:00,0.0110688343134,0,0.5
2014-04-10 11:47:00,0.0163202415018,0,0.5
2014-04-10 11:52:00,0.00619477374925,0,0.5
2014-04-10 11:57:00,0.0208169554417,0,0.5
2014-04-10 12:02:00,0.00572309046885,0,0.5
2014-04-10 12:07:00,0.0169177069903,0,0.5
2014-04-10 12:12:00,0.0163202415018,0,0.5
2014-04-10 12:17:00,0.011823527562,0,0.5
2014-04-10 12:22:00,0.0265400459105,0,0.5
2014-04-10 12:27:00,0.0215716486903,0,0.5
2014-04-10 12:32:00,0.0215716486903,0,0.5
2014-04-10 12:37:00,0.0267916103267,0,0.5
2014-04-10 12:42:00,0.0110688343134,0,0.5
2014-04-10 12:47:00,0.0214144209302,0,0.5
2014-04-10 12:52:00,0.0170749347505,0,0.5
2014-04-10 12:57:00,0.0209741832018,0,0.5
2014-04-10 13:02:00,0.0111002798654,0,0.5
2014-04-10 13:07:00,0.0215716486903,0,0.5
2014-04-10 13:12:00,0.00622621930128,0,0.5
2014-04-10 13:17:00,0.0263828181504,0,0.5
2014-04-10 13:22:00,0.0111946165215,0,0.5
2014-04-10 13:27:00,0.0211628565139,0,0.5
2014-04-10 13:32:00,0.0222005597308,0,0.5
2014-04-10 13:37:00,0.0215716486903,0,0.5
2014-04-10 13:42:00,0.0209741832018,0,0.5
2014-04-10 13:47:00,0.0215716486903,0,0.5
2014-04-10 13:52:00,0.0110688343134,0,0.5
2014-04-10 13:57:00,0.0272947391591,0,0.5
2014-04-10 14:02:00,0.000345901072293,0,0.5
2014-04-10 14:07:00,0.0110373887614,0,0.5
2014-04-10 14:12:00,0.0113518442816,0,0.5
2014-04-10 14:17:00,0.0215402031383,0,0.5
2014-04-10 14:22:00,0.0110688343134,0,0.5
2014-04-10 14:27:00,0.0320430175152,0,0.5
2014-04-10 14:32:00,0.0215716486903,0,0.5
2014-04-10 14:37:00,0.0216030942423,0,0.5
2014-04-10 14:42:00,0.000440237728373,0,0.5
2014-04-10 14:47:00,0.0268545014308,0,0.5
2014-04-10 14:52:00,0.00679223923776,0,0.5
2014-04-10 14:57:00,0.0266658281186,0,0.5
2014-04-10 15:02:00,0.00559730826075,0,0.5
2014-04-10 15:07:00,0.0111317254174,0,0.5
2014-04-10 15:12:00,0.0110688343134,0,0.5
2014-04-10 15:17:00,0.0213829753781,0,0.5
2014-04-10 15:22:00,0.0110688343134,0,0.5
2014-04-10 15:27:00,0.0268230558787,0,0.5
2014-04-10 15:32:00,0.0107229332411,0,0.5
2014-04-10 15:37:00,0.0267916103267,0,0.5
2014-04-10 15:42:00,0.0215402031383,0,0.5
2014-04-10 15:47:00,0.0163516870539,0,0.5
2014-04-10 15:52:00,0.0110688343134,0,0.5
2014-04-10 15:57:00,0.0273576302632,0,0.5
2014-04-10 16:02:00,0.0110688343134,0,0.5
2014-04-10 16:07:00,0.042482940788,0,0.5
2014-04-10 16:12:00,0.0110688343134,0,0.5
2014-04-10 16:17:00,0.0163516870539,0,0.5
2014-04-10 16:22:00,0.0215716486903,0,0.5
2014-04-10 16:27:00,0.0314769975787,0,0.5
2014-04-10 16:32:00,0.0169491525424,0,0.5
2014-04-10 16:37:00,0.00584887267696,0,0.5
2014-04-10 16:42:00,0.0215716486903,0,0.5
2014-04-10 16:47:00,0.0111002798654,0,0.5
2014-04-10 16:52:00,0.0110373887614,0,0.5
2014-04-10 16:57:00,0.0110688343134,0,0.5
2014-04-10 17:02:00,0.0163202415018,0,0.5
2014-04-10 17:07:00,0.0163202415018,0,0.5
2014-04-10 17:12:00,0.0110688343134,0,0.5
2014-04-10 17:17:00,0.00525140718845,0,0.5
2014-04-10 17:22:00,0.0321687997233,0,0.5
2014-04-10 17:27:00,0.0215716486903,0,0.5
2014-04-10 17:32:00,0.0215716486903,0,0.5
2014-04-10 17:37:00,0.0216030942423,0,0.5
2014-04-10 17:42:00,0.0215716486903,0,0.5
2014-04-10 17:47:00,0.00657212037357,0,0.5
2014-04-10 17:52:00,0.0164145781579,0,0.5
2014-04-10 17:57:00,0.0215716486903,0,0.5
2014-04-10 18:02:00,0.0109116065533,0,0.5
2014-04-10 18:07:00,0.0110688343134,0,0.5
2014-04-10 18:12:00,0.0110688343134,0,0.5
2014-04-10 18:17:00,0.0111002798654,0,0.5
2014-04-10 18:22:00,0.0215716486903,0,0.5
2014-04-10 18:27:00,0.0221062230747,0,0.5
2014-04-10 18:32:00,0.0163202415018,0,0.5
2014-04-10 18:37:00,0.0210056287538,0,0.5
2014-04-10 18:42:00,0.0110688343134,0,0.5
2014-04-10 18:47:00,0.0111002798654,0,0.5
2014-04-10 18:52:00,0.0110688343134,0,0.5
2014-04-10 18:57:00,0.0161630137417,0,0.5
2014-04-10 19:02:00,0.0163202415018,0,0.5
2014-04-10 19:07:00,0.00584887267696,0,0.5
2014-04-10 19:12:00,0.0270117291909,0,0.5
2014-04-10 19:17:00,0.000628911040533,0,0.5
2014-04-10 19:22:00,0.0163202415018,0,0.5
2014-04-10 19:27:00,0.0109744976573,0,0.5
2014-04-10 19:32:00,0.021225747618,0,0.5
2014-04-10 19:37:00,0.0163516870539,0,0.5
2014-04-10 19:42:00,0.0268230558787,0,0.5
2014-04-10 19:47:00,0.0210056287538,0,0.5
2014-04-10 19:52:00,0.0169177069903,0,0.5
2014-04-10 19:57:00,0.0215716486903,0,0.5
2014-04-10 20:02:00,0.0163202415018,0,0.5
2014-04-10 20:07:00,0.0112889531776,0,0.5
2014-04-10 20:12:00,0.0166975881262,0,0.5
2014-04-10 20:17:00,0.00028300996824,0,0.5
2014-04-10 20:22:00,0.0163516870539,0,0.5
2014-04-10 20:27:00,0.00584887267696,0,0.5
2014-04-10 20:32:00,0.0110688343134,0,0.5
2014-04-10 20:37:00,0.0210056287538,0,0.5
2014-04-10 20:42:00,0.0268230558787,0,0.5
2014-04-10 20:47:00,0.0104084777208,0,0.5
2014-04-10 20:52:00,0.0110688343134,0,0.5
2014-04-10 20:57:00,0.0268230558787,0,0.5
2014-04-10 21:02:00,0.00581742712493,0,0.5
2014-04-10 21:07:00,0.0111002798654,0,0.5
2014-04-10 21:12:00,0.0268230558787,0,0.5
2014-04-10 21:17:00,0.0231753718437,0,0.5
2014-04-10 21:22:00,0.0218546586585,0,0.5
2014-04-10 21:27:00,0.025974025974,0,0.5
2014-04-10 21:32:00,0.0207855098896,0,0.5
2014-04-10 21:37:00,0.0163831326059,0,0.5
2014-04-10 21:42:00,0.0215716486903,0,0.5
2014-04-10 21:47:00,0.000597465488507,0,0.5
2014-04-10 21:52:00,0.0215716486903,0,0.5
2014-04-10 21:57:00,0.0163202415018,0,0.5
2014-04-10 22:02:00,0.0110688343134,0,0.5
2014-04-10 22:07:00,0.0163202415018,0,0.5
2014-04-10 22:12:00,0.00654067482155,0,0.5
2014-04-10 22:17:00,0.0106914876891,0,0.5
2014-04-10 22:22:00,0.0163202415018,0,0.5
2014-04-10 22:27:00,0.0215716486903,0,0.5
2014-04-10 22:32:00,0.0163202415018,0,0.5
2014-04-10 22:37:00,0.0217917675545,0,0.5
2014-04-10 22:42:00,0.0320744630672,0,0.5
2014-04-10 22:47:00,0.0163202415018,0,0.5
2014-04-10 22:52:00,0.0110688343134,0,0.5
2014-04-10 22:57:00,0.0425458318921,0,0.5
2014-04-10 23:02:00,0.0110688343134,0,0.5
2014-04-10 23:07:00,0.0268230558787,0,0.5
2014-04-10 23:12:00,0.0215716486903,0,0.5
2014-04-10 23:17:00,0.0163516870539,0,0.5
2014-04-10 23:22:00,0.0215716486903,0,0.5
2014-04-10 23:27:00,0.0215716486903,0,0.5
2014-04-10 23:32:00,0.00581742712493,0,0.5
2014-04-10 23:37:00,0.0215716486903,0,0.5
2014-04-10 23:42:00,0.00581742712493,0,0.5
2014-04-10 23:47:00,0.0218546586585,0,0.5
2014-04-10 23:52:00,0.00581742712493,0,0.5
2014-04-10 23:57:00,0.0241816295085,0,0.5
2014-04-11 00:02:00,0.00584887267696,0,0.5
2014-04-11 00:07:00,0.0268545014308,0,0.5
2014-04-11 00:12:00,0.0163202415018,0,0.5
2014-04-11 00:17:00,0.0163516870539,0,0.5
2014-04-11 00:22:00,0.0215402031383,0,0.5
2014-04-11 00:27:00,0.0267916103267,0,0.5
2014-04-11 00:32:00,0.00581742712493,0,0.5
2014-04-11 00:37:00,0.0111002798654,0,0.5
2014-04-11 00:42:00,0.0163202415018,0,0.5
2014-04-11 00:47:00,0.0111317254174,0,0.5
2014-04-11 00:52:00,0.0163202415018,0,0.5
2014-04-11 00:57:00,0.0263199270463,0,0.5
2014-04-11 01:02:00,0.00581742712493,0,0.5
2014-04-11 01:07:00,0.0267916103267,0,0.5
2014-04-11 01:12:00,0.0163202415018,0,0.5
2014-04-11 01:17:00,0.0111317254174,0,0.5
2014-04-11 01:22:00,0.0110688343134,0,0.5
2014-04-11 01:27:00,0.0159428948775,0,0.5
2014-04-11 01:32:00,0.0163202415018,0,0.5
2014-04-11 01:37:00,0.0154712115971,0,0.5
2014-04-11 01:42:00,0.0210370743058,0,0.5
2014-04-11 01:47:00,0.0162887959498,0,0.5
2014-04-11 01:52:00,0.0268230558787,0,0.5
2014-04-11 01:57:00,0.0320744630672,0,0.5
2014-04-11 02:02:00,0.0217603220025,0,0.5
2014-04-11 02:07:00,0.0163202415018,0,0.5
2014-04-11 02:12:00,0.0264771548065,0,0.5
2014-04-11 02:17:00,0.0111002798654,0,0.5
2014-04-11 02:22:00,0.0215716486903,0,0.5
2014-04-11 02:27:00,0.0158171126694,0,0.5
2014-04-11 02:32:00,0.0163202415018,0,0.5
2014-04-11 02:37:00,0.0270431747429,0,0.5
2014-04-11 02:42:00,0.0265714914625,0,0.5
2014-04-11 02:47:00,0.0169805980944,0,0.5
2014-04-11 02:52:00,0.0268230558787,0,0.5
2014-04-11 02:57:00,0.0161001226377,0,0.5
2014-04-11 03:02:00,0.0215716486903,0,0.5
2014-04-11 03:07:00,0.00584887267696,0,0.5
2014-04-11 03:12:00,0.0163202415018,0,0.5
2014-04-11 03:17:00,0.000597465488507,0,0.5
2014-04-11 03:22:00,0.0163202415018,0,0.5
2014-04-11 03:27:00,0.0268230558787,0,0.5
2014-04-11 03:32:00,0.0215716486903,0,0.5
2014-04-11 03:37:00,0.0268230558787,0,0.5
2014-04-11 03:42:00,0.0215716486903,0,0.5
2014-04-11 03:47:00,0.0163516870539,0,0.5
2014-04-11 03:52:00,0.0215716486903,0,0.5
2014-04-11 03:57:00,0.0163202415018,0,0.5
2014-04-11 04:02:00,0.0163202415018,0,0.5
2014-04-11 04:07:00,0.0111002798654,0,0.5
2014-04-11 04:12:00,0.0163202415018,0,0.5
2014-04-11 04:17:00,0.0156913304613,0,0.5
2014-04-11 04:22:00,0.0163202415018,0,0.5
2014-04-11 04:27:00,0.0163202415018,0,0.5
2014-04-11 04:32:00,0.0163202415018,0,0.5
2014-04-11 04:37:00,0.00584887267696,0,0.5
2014-04-11 04:42:00,0.0215716486903,0,0.5
2014-04-11 04:47:00,0.0111002798654,0,0.5
2014-04-11 04:52:00,0.031885789755,0,0.5
2014-04-11 04:57:00,0.0163202415018,0,0.5
2014-04-11 05:02:00,0.0110688343134,0,0.5
2014-04-11 05:07:00,0.0162573503978,0,0.5
2014-04-11 05:12:00,0.0112889531776,0,0.5
2014-04-11 05:17:00,0.0120122008742,0,0.5
2014-04-11 05:22:00,0.0160686770856,0,0.5
2014-04-11 05:27:00,0.0163202415018,0,0.5
2014-04-11 05:32:00,0.00581742712493,0,0.5
2014-04-11 05:37:00,0.0111002798654,0,0.5
2014-04-11 05:42:00,0.0163202415018,0,0.5
2014-04-11 05:47:00,0.0111002798654,0,0.5
2014-04-11 05:52:00,0.0110688343134,0,0.5
2014-04-11 05:57:00,0.0163202415018,0,0.5
2014-04-11 06:02:00,0.0159743404295,0,0.5
2014-04-11 06:07:00,0.00584887267696,0,0.5
2014-04-11 06:12:00,0.0110688343134,0,0.5
2014-04-11 06:17:00,0.0161630137417,0,0.5
2014-04-11 06:22:00,0.0110688343134,0,0.5
2014-04-11 06:27:00,0.0163202415018,0,0.5
2014-04-11 06:32:00,0.0223263419389,0,0.5
2014-04-11 06:37:00,0.0211628565139,0,0.5
2014-04-11 06:42:00,0.0163202415018,0,0.5
2014-04-11 06:47:00,0.0215716486903,0,0.5
2014-04-11 06:52:00,0.0215716486903,0,0.5
2014-04-11 06:57:00,0.0110059432093,0,0.5
2014-04-11 07:02:00,0.0110688343134,0,0.5
2014-04-11 07:07:00,0.000534574384453,0,0.5
2014-04-11 07:12:00,0.0171063803025,0,0.5
2014-04-11 07:17:00,0.0159114493255,0,0.5
2014-04-11 07:22:00,0.0110688343134,0,0.5
2014-04-11 07:27:00,0.0163202415018,0,0.5
2014-04-11 07:32:00,0.0110688343134,0,0.5
2014-04-11 07:37:00,0.0109430521053,0,0.5
2014-04-11 07:42:00,0.0211314109619,0,0.5
2014-04-11 07:47:00,0.00650922926952,0,0.5
2014-04-11 07:52:00,0.0421684852678,0,0.5
2014-04-11 07:57:00,0.0267916103267,0,0.5
2014-04-11 08:02:00,0.0163202415018,0,0.5
2014-04-11 08:07:00,0.0111002798654,0,0.5
2014-04-11 08:12:00,0.0215716486903,0,0.5
2014-04-11 08:17:00,0.00584887267696,0,0.5
2014-04-11 08:22:00,0.0268230558787,0,0.738804695136
2014-04-11 08:27:00,0.0157227760133,0,0.729753842833
2014-04-11 08:32:00,0.0169177069903,0,0.737741070907
2014-04-11 08:37:00,0.0163516870539,0,0.718897938343
2014-04-11 08:42:00,0.0110688343134,0,0.776111522886
2014-04-11 08:47:00,0.0163516870539,0,0.79372142233
2014-04-11 08:52:00,0.0215716486903,0,0.784968131165
2014-04-11 08:57:00,0.0110688343134,0,0.78502117986
2014-04-11 09:02:00,0.0166346970221,0,0.793255139927
2014-04-11 09:07:00,0.010597151033,0,0.785339312381
2014-04-11 09:12:00,0.0163202415018,0,0.802613119999
2014-04-11 09:17:00,0.0111002798654,0,0.809941385256
2014-04-11 09:22:00,0.0163202415018,0,0.81087622001
2014-04-11 09:27:00,0.0215716486903,0,0.802613119999
2014-04-11 09:32:00,0.0110688343134,0,0.802613119999
2014-04-11 09:37:00,0.0115719631458,0,0.810187669324
2014-04-11 09:42:00,0.0210685198579,0,0.810974458673
2014-04-11 09:47:00,0.000628911040533,0,0.826844393266
2014-04-11 09:52:00,0.0110688343134,0,0.83494771201
2014-04-11 09:57:00,0.022389233043,0,0.817484694796
2014-04-11 10:02:00,0.0116034086978,0,0.824603929116
2014-04-11 10:07:00,0.00534574384453,0,0.833047465139
2014-04-11 10:12:00,0.0164145781579,0,0.832911195397
2014-04-11 10:17:00,0.0111002798654,0,0.847599086973
2014-04-11 10:22:00,0.0215716486903,0,0.832865756218
2014-04-11 10:27:00,0.00584887267696,0,0.841004399739
2014-04-11 10:32:00,0.0220118864187,0,0.839681045001
2014-04-11 10:37:00,0.0105028143769,0,0.825399519912
2014-04-11 10:42:00,0.0219175497626,0,0.808805950936
2014-04-11 10:47:00,0.00540863494859,0,0.834361042459
2014-04-11 10:52:00,0.0113518442816,0,0.83472222927
2014-04-11 10:57:00,0.0215716486903,0,0.810384555212
2014-04-11 11:02:00,0.00584887267696,0,0.82647225374
2014-04-11 11:07:00,0.0261312537342,0,0.803318325146
2014-04-11 11:12:00,0.0116034086978,0,0.818874973196
2014-04-11 11:17:00,0.0215716486903,0,0.793980198558
2014-04-11 11:22:00,0.0163202415018,0,0.803217675092
2014-04-11 11:27:00,0.0266972736706,0,0.776274380555
2014-04-11 11:32:00,0.00600610043709,0,0.80276436398
2014-04-11 11:37:00,0.0214773120342,0,0.776002913689
2014-04-11 11:42:00,0.0110688343134,0,0.776491419313
2014-04-11 11:47:00,0.0163831326059,0,0.785339312381
2014-04-11 11:52:00,0.0111002798654,0,0.776382914908
2014-04-11 11:57:00,0.0163516870539,0,0.792892044775
2014-04-11 12:02:00,0.0110688343134,0,0.793773192982
2014-04-11 12:07:00,0.0215716486903,0,0.793773192982
2014-04-11 12:12:00,0.0108172698972,0,0.802713957111
2014-04-11 12:17:00,0.0263513725983,0,0.803268004017
2014-04-11 12:22:00,0.0110688343134,0,0.795064954441
2014-04-11 12:27:00,0.0215716486903,0,0.794910197544
2014-04-11 12:32:00,0.00584887267696,0,0.803368638478
2014-04-11 12:37:00,0.0267916103267,0,0.78629206672
2014-04-11 12:42:00,0.0109116065533,0,0.78660910329
2014-04-11 12:47:00,0.0163516870539,0,0.78660910329
2014-04-11 12:52:00,0.016508914814,0,0.777358375685
2014-04-11 12:57:00,0.0215716486903,0,0.777358375685
2014-04-11 13:02:00,0.00610043709317,0,0.785392307854
2014-04-11 13:07:00,0.0216030942423,0,0.793306979879
2014-04-11 13:12:00,0.0163202415018,0,0.784543468057
2014-04-11 13:17:00,0.0215716486903,0,0.784543468057
2014-04-11 13:22:00,0.0163202415018,0,0.766440041985
2014-04-11 13:27:00,0.0265400459105,0,0.766884622128
2014-04-11 13:32:00,0.000628911040533,0,0.784649679418
2014-04-11 13:37:00,0.0163516870539,0,0.784649679418
2014-04-11 13:42:00,0.0110688343134,0,0.79372142233
2014-04-11 13:47:00,0.0111002798654,0,0.810532137149
2014-04-11 13:52:00,0.0113518442816,0,0.802209459953
2014-04-11 13:57:00,0.0163202415018,0,0.810581315415
2014-04-11 14:02:00,0.00556586270872,0,0.82693734867
2014-04-11 14:07:00,0.0163516870539,0,0.834541699621
2014-04-11 14:12:00,0.0215716486903,0,0.826890874942
2014-04-11 14:17:00,0.0111317254174,0,0.848708677071
2014-04-11 14:22:00,0.00610043709317,0,0.841180304696
2014-04-11 14:27:00,0.0161630137417,0,0.841443922861
2014-04-11 14:32:00,0.0111002798654,0,0.841400006439
2014-04-11 14:37:00,0.0268230558787,0,0.818444219156
2014-04-11 14:42:00,0.0160686770856,0,0.811170841682
2014-04-11 14:47:00,0.00584887267696,0,0.827076722161
2014-04-11 14:52:00,0.0163202415018,0,0.810728803073
2014-04-11 14:57:00,0.0163202415018,0,0.81077794991
2014-04-11 15:02:00,0.0110688343134,0,0.82675140607
2014-04-11 15:07:00,0.0157542215654,0,0.819829909954
2014-04-11 15:12:00,0.0273576302632,0,0.785815997787
2014-04-11 15:17:00,0.000597465488507,0,0.811072665898
2014-04-11 15:22:00,0.0110688343134,0,0.811121757721
2014-04-11 15:27:00,0.0163202415018,0,0.827076722161
2014-04-11 15:32:00,0.0163202415018,0,0.82670490055
2014-04-11 15:37:00,0.0111002798654,0,0.818827143276
2014-04-11 15:42:00,0.0110688343134,0,0.82670490055
2014-04-11 15:47:00,0.0123895474985,0,0.832456445136
2014-04-11 15:52:00,0.010565705481,0,0.833183663182
2014-04-11 15:57:00,0.0110688343134,0,0.839857907025
2014-04-11 16:02:00,0.0213200842741,0,0.848197227979
2014-04-11 16:07:00,0.00584887267696,0,0.84096040356
2014-04-11 16:12:00,0.0268230558787,0,0.817916872086
2014-04-11 16:17:00,0.0163202415018,0,0.817916872086
2014-04-11 16:22:00,0.0215716486903,0,0.809793520588
2014-04-11 16:27:00,0.0110059432093,0,0.809941385256
2014-04-11 16:32:00,0.0163516870539,0,0.801552449534
2014-04-11 16:37:00,0.00584887267696,0,0.811906157569
2014-04-11 16:42:00,0.0215716486903,0,0.79429047576
2014-04-11 16:47:00,0.00584887267696,0,0.80276436398
2014-04-11 16:52:00,0.0168862614383,0,0.809793520588
2014-04-11 16:57:00,0.0211628565139,0,0.784862010977
2014-04-11 17:02:00,0.0110688343134,0,0.810482951026
2014-04-11 17:07:00,0.0216030942423,0,0.802108467061
2014-04-11 17:12:00,0.0110688343134,0,0.818539997643
2014-04-11 17:17:00,0.0,0,0.834812446276
2014-04-11 17:22:00,0.0163202415018,0,0.834857542824
2014-04-11 17:27:00,0.0214458664822,0,0.81151420928
2014-04-11 17:32:00,0.0163202415018,0,0.819591472539
2014-04-11 17:37:00,0.0163202415018,0,0.803268004017
2014-04-11 17:42:00,0.0163202415018,0,0.804172590997
2014-04-11 17:47:00,0.00525140718845,0,0.828558920394
2014-04-11 17:52:00,0.0110688343134,0,0.828558920394
2014-04-11 17:57:00,0.0215716486903,0,0.828605107872
2014-04-11 18:02:00,0.0320115719631,0,0.79609489156
2014-04-11 18:07:00,0.0268230558787,0,0.749490996091
2014-04-11 18:12:00,0.0163202415018,0,0.749490996091
2014-04-11 18:17:00,0.0111317254174,0,0.768049406572
2014-04-11 18:22:00,0.00584887267696,0,0.786080556666
2014-04-11 18:27:00,0.0215716486903,0,0.777141816487
2014-04-11 18:32:00,0.0056601993648,0,0.795064954441
2014-04-11 18:37:00,0.0111002798654,0,0.785339312381
2014-04-11 18:42:00,0.0159743404295,0,0.77697931836
2014-04-11 18:47:00,0.0158171126694,0,0.786767518708
2014-04-11 18:52:00,0.00056601993648,0,0.835667917737
2014-04-11 18:57:00,0.0261312537342,0,0.83665486853
2014-04-11 19:02:00,0.00581742712493,0,0.851164508653
2014-04-11 19:07:00,0.0163831326059,0,0.844020875071
2014-04-11 19:12:00,0.01179208201,0,0.835667917737
2014-04-11 19:17:00,0.0156913304613,0,0.843933975345
2014-04-11 19:22:00,0.0110688343134,0,0.83634125727
2014-04-11 19:27:00,0.0268230558787,0,0.812932626042
2014-04-11 19:32:00,0.00654067482155,0,0.827216024112
2014-04-11 19:37:00,0.0158485582214,0,0.827169598077
2014-04-11 19:42:00,0.0111002798654,0,0.811170841682
2014-04-11 19:47:00,0.0168862614383,0,0.825259288302
2014-04-11 19:52:00,0.000786138800667,0,0.832638440829
2014-04-11 19:57:00,0.0215402031383,0,0.825072201636
2014-04-11 20:02:00,0.00581742712493,0,0.833818305956
2014-04-11 20:07:00,0.0111002798654,0,0.840343619619
2014-04-11 20:12:00,0.0162887959498,0,0.832911195397
2014-04-11 20:17:00,0.0276720857835,0,0.831681541741
2014-04-11 20:22:00,0.022357787491,0,0.807716000873
2014-04-11 20:27:00,0.0158171126694,0,0.807765626353
2014-04-11 20:32:00,0.0110688343134,0,0.807815243998
2014-04-11 20:37:00,0.0051885160844,0,0.825726449006
2014-04-11 20:42:00,0.0111002798654,0,0.809990657775
2014-04-11 20:47:00,0.0215716486903,0,0.809941385256
2014-04-11 20:52:00,0.0215716486903,0,0.784277806755
2014-04-11 20:57:00,0.016508914814,0,0.775024084922
2014-04-11 21:02:00,0.0215716486903,0,0.765772291041
2014-04-11 21:07:00,0.00584887267696,0,0.802613119999
2014-04-11 21:12:00,0.0215716486903,0,0.803871342849
2014-04-11 21:17:00,0.0110688343134,0,0.811367098913
2014-04-11 21:22:00,0.0268230558787,0,0.785815997787
2014-04-11 21:27:00,0.016540360366,0,0.766217575713
2014-04-11 21:32:00,0.0215402031383,0,0.747349223387
2014-04-11 21:37:00,0.0111002798654,0,0.766273203289
2014-04-11 21:42:00,0.0215716486903,0,0.766273203289
2014-04-11 21:47:00,0.00584887267696,0,0.784702773704
2014-04-11 21:52:00,0.0171378258545,0,0.792112714614
2014-04-11 21:57:00,0.0164460237099,0,0.77415198347
2014-04-11 22:02:00,0.0158171126694,0,0.784011955662
2014-04-11 22:07:00,0.0111002798654,0,0.783958762675
2014-04-11 22:12:00,0.0320744630672,0,0.774969634558
2014-04-11 22:17:00,0.0163202415018,0,0.775350630247
2014-04-11 22:22:00,0.0119807553222,0,0.79154010683
2014-04-11 22:27:00,0.010660042137,0,0.79226871903
2014-04-11 22:32:00,0.0215716486903,0,0.79226871903
2014-04-11 22:37:00,0.0114147353857,0,0.782946655046
2014-04-11 22:42:00,0.0274205213673,0,0.765103484553
2014-04-11 22:47:00,0.0111002798654,0,0.774479245354
2014-04-11 22:52:00,0.0160057859816,0,0.77415198347
2014-04-11 22:57:00,0.0110688343134,0,0.774206545761
2014-04-11 23:02:00,0.0216659853464,0,0.79185255357
2014-04-11 23:07:00,0.0111002798654,0,0.800386825763
2014-04-11 23:12:00,0.0320115719631,0,0.766495640204
2014-04-11 23:17:00,0.0111002798654,0,0.765716597462
2014-04-11 23:22:00,0.0215716486903,0,0.765716597462
2014-04-11 23:27:00,0.0163202415018,0,0.756939210652
2014-04-11 23:32:00,0.0110688343134,0,0.785498275984
2014-04-11 23:37:00,0.0163516870539,0,0.776545660282
2014-04-11 23:42:00,0.0113518442816,0,0.784490350984
2014-04-11 23:47:00,0.00584887267696,0,0.793203292278
2014-04-11 23:52:00,0.0215716486903,0,0.793358812133
2014-04-11 23:57:00,0.01411905286,0,0.788347896966
2014-04-12 00:02:00,0.0110688343134,0,0.821635564564
2014-04-12 00:07:00,0.00584887267696,0,0.829435122134
2014-04-12 00:12:00,0.0163202415018,0,0.837012803032
2014-04-12 00:17:00,0.00584887267696,0,0.851459090296
2014-04-12 00:22:00,0.0215402031383,0,0.837012803032
2014-04-12 00:27:00,0.0116977453539,0,0.843542531825
2014-04-12 00:32:00,0.0215716486903,0,0.828974321324
2014-04-12 00:37:00,0.00584887267696,0,0.828974321324
2014-04-12 00:42:00,0.0110688343134,0,0.843933975345
2014-04-12 00:47:00,0.0163202415018,0,0.840872387276
2014-04-12 00:52:00,0.0164460237099,0,0.833229046596
2014-04-12 00:57:00,0.0110688343134,0,0.825586384196
2014-04-12 01:02:00,0.00584887267696,0,0.840696259
2014-04-12 01:07:00,0.0163202415018,0,0.825586384196
2014-04-12 01:12:00,0.0268230558787,0,0.817628825029
2014-04-12 01:17:00,0.00584887267696,0,0.826425700537
2014-04-12 01:22:00,0.0163202415018,0,0.834089817644
2014-04-12 01:27:00,0.0109116065533,0,0.82670490055
2014-04-12 01:32:00,0.0163202415018,0,0.818827143276
2014-04-12 01:37:00,0.00584887267696,0,0.834315858246
2014-04-12 01:42:00,0.0268230558787,0,0.818970609303
2014-04-12 01:47:00,0.00584887267696,0,0.826797903642
2014-04-12 01:52:00,0.0268230558787,0,0.794031930691
2014-04-12 01:57:00,0.0215716486903,0,0.785286309302
2014-04-12 02:02:00,0.0111946165215,0,0.810679648378
2014-04-12 02:07:00,0.0110688343134,0,0.802411352289
2014-04-12 02:12:00,0.00584887267696,0,0.818779305446
2014-04-12 02:17:00,0.0111002798654,0,0.818492112354
2014-04-12 02:22:00,0.0215716486903,0,0.810384555212
2014-04-12 02:27:00,0.0320744630672,0,0.766662390809
2014-04-12 02:32:00,0.0163202415018,0,0.784808939484
2014-04-12 02:37:00,0.0268230558787,0,0.747755162015
2014-04-12 02:42:00,0.0161630137417,0,0.766995693707
2014-04-12 02:47:00,0.00584887267696,0,0.793824955932
2014-04-12 02:52:00,0.0215402031383,0,0.776382914908
2014-04-12 02:57:00,0.0267916103267,0,0.748334477196
2014-04-12 03:02:00,0.000597465488507,0,0.757904275237
2014-04-12 03:07:00,0.0151882016289,0,0.750471818473
2014-04-12 03:12:00,0.0163202415018,0,0.759997508415
2014-04-12 03:17:00,0.0163202415018,0,0.787347788183
2014-04-12 03:22:00,0.00581742712493,0,0.804523692045
2014-04-12 03:27:00,0.0320744630672,0,0.796043468079
2014-04-12 03:32:00,0.00610043709317,0,0.81210194293
2014-04-12 03:37:00,0.0216030942423,0,0.78660910329
2014-04-12 03:42:00,0.00562875381277,0,0.812346497603
2014-04-12 03:47:00,0.0268230558787,0,0.812297602406
2014-04-12 03:52:00,0.00584887267696,0,0.804022002039
2014-04-12 03:57:00,0.0268545014308,0,0.784862010977
2014-04-12 04:02:00,0.00581742712493,0,0.8021589674
2014-04-12 04:07:00,0.0169805980944,0,0.801096825776
2014-04-12 04:12:00,0.0105028143769,0,0.793462453546
2014-04-12 04:17:00,0.0267916103267,0,0.802057958935
2014-04-12 04:22:00,0.00581742712493,0,0.802512251724
2014-04-12 04:27:00,0.0163516870539,0,0.810827088889
2014-04-12 04:32:00,0.0163202415018,0,0.793669643975
2014-04-12 04:37:00,0.0159114493255,0,0.811170841682
2014-04-12 04:42:00,0.0110688343134,0,0.80291553783
2014-04-12 04:47:00,0.0221062230747,0,0.810433757047
2014-04-12 04:52:00,0.000597465488507,0,0.818492112354
2014-04-12 04:57:00,0.0268230558787,0,0.803116993852
2014-04-12 05:02:00,0.0110688343134,0,0.802209459953
2014-04-12 05:07:00,0.0111317254174,0,0.826379139388
2014-04-12 05:12:00,0.0163516870539,0,0.810335345522
2014-04-12 05:17:00,0.0111317254174,0,0.81839631805
2014-04-12 05:22:00,0.0171063803025,0,0.81719622096
2014-04-12 05:27:00,0.0101569133046,0,0.825866442321
2014-04-12 05:32:00,0.00635200150939,0,0.83277485396
2014-04-12 05:37:00,0.0110688343134,0,0.848239892565
2014-04-12 05:42:00,0.0163202415018,0,0.825913090871