timestamp,value,is_anomaly,anomaly_score
2014-04-10 00:04:00,0.000869593163402,0,0.5
2014-04-10 00:09:00,0.012913729237,0,0.5
2014-04-10 00:14:00,0.00101547576623,0,0.5
2014-04-10 00:19:00,0.000817779011884,0,0.5
2014-04-10 00:24:00,0.000846079110705,0,0.5
2014-04-10 00:29:00,0.000798300252978,0,0.5
2014-04-10 00:34:00,0.000886542213359,0,0.5
2014-04-10 00:39:00,0.000838416540696,0,0.5
2014-04-10 00:44:00,0.00194162669345,0,0.5
2014-04-10 00:49:00,0.00094809574433,0,0.5
2014-04-10 00:54:00,0.000862428374831,0,0.5
2014-04-10 00:59:00,0.0129073233611,0,0.5
2014-04-10 01:04:00,0.000987897858516,0,0.5
2014-04-10 01:09:00,0.0130289125977,0,0.5
2014-04-10 01:14:00,0.000753369357907,0,0.5
2014-04-10 01:19:00,0.000832565568707,0,0.5
2014-04-10 01:24:00,0.000748265058076,0,0.5
2014-04-10 01:29:00,0.000856920137603,0,0.5
2014-04-10 01:34:00,0.000754491406231,0,0.5
2014-04-10 01:39:00,0.00085191376199,0,0.5
2014-04-10 01:44:00,0.000759950681349,0,0.5
2014-04-10 01:49:00,0.000755450247526,0,0.5
2014-04-10 01:54:00,0.00082226720518,0,0.5
2014-04-10 01:59:00,0.0129862747613,0,0.5
2014-04-10 02:04:00,0.000804159385318,0,0.5
2014-04-10 02:09:00,0.0129108323122,0,0.5
2014-04-10 02:14:00,0.000839191774083,0,0.5
2014-04-10 02:19:00,0.000788340544036,0,0.5
2014-04-10 02:24:00,0.000868805689487,0,0.5
2014-04-10 02:29:00,0.000737799407344,0,0.5
2014-04-10 02:34:00,0.000826298418796,0,0.5
2014-04-10 02:39:00,0.000739439637985,0,0.5
2014-04-10 02:44:00,0.000791531241452,0,0.5
2014-04-10 02:49:00,0.000813156172789,0,0.5
2014-04-10 02:54:00,0.000765103943289,0,0.5
2014-04-10 02:59:00,0.0129817049645,0,0.5
2014-04-10 03:04:00,0.000775794003685,0,0.5
2014-04-10 03:09:00,0.0130129591106,0,0.5
2014-04-10 03:19:00,0.000891067128237,0,0.5
2014-04-10 03:24:00,0.000726048501259,0,0.5
2014-04-10 03:29:00,0.000814906568174,0,0.5
2014-04-10 03:34:00,0.000796876271651,0,0.5
2014-04-10 03:39:00,0.000818280873498,0,0.5
2014-04-10 03:44:00,0.000778625645638,0,0.5
2014-04-10 03:49:00,0.000797255727993,0,0.5
2014-04-10 03:54:00,0.000843667726852,0,0.5
2014-04-10 03:59:00,0.0129038552117,0,0.5
2014-04-10 04:04:00,0.000862346771316,0,0.5
2014-04-10 04:09:00,0.0129311515873,0,0.5
2014-04-10 04:14:00,0.000829676804295,0,0.5
2014-04-10 04:19:00,0.000741899983947,0,0.5
2014-04-10 04:24:00,0.000838420620871,0,0.5
2014-04-10 04:29:00,0.0129968424165,0,0.5
2014-04-10 04:34:00,0.00411087251794,0,0.5
2014-04-10 04:39:00,0.00587150914456,0,0.5
2014-04-10 04:44:00,0.000819035706007,0,0.5
2014-04-10 04:49:00,0.000844434799888,0,0.5
2014-04-10 04:54:00,0.000793599890544,0,0.5
2014-04-10 04:59:00,0.0129559998575,0,0.5
2014-04-10 05:04:00,0.00082995833642,0,0.5
2014-04-10 05:09:00,0.0129353949701,0,0.5
2014-04-10 05:14:00,0.00080820283946,0,0.5
2014-04-10 05:19:00,0.00081981501957,0,0.5
2014-04-10 05:24:00,0.0008401302145,0,0.5
2014-04-10 05:29:00,0.000763949253559,0,0.5
2014-04-10 05:34:00,0.000866622795475,0,0.5
2014-04-10 05:39:00,0.000754568929569,0,0.5
2014-04-10 05:44:00,0.000856638605478,0,0.5
2014-04-10 05:49:00,0.000753801856533,0,0.5
2014-04-10 05:54:00,0.000856340752651,0,0.5
2014-04-10 05:59:00,0.0129560406592,0,0.5
2014-04-10 06:04:00,0.000874032394589,0,0.5
2014-04-10 06:09:00,0.0128900642178,0,0.5
2014-04-10 06:14:00,0.000842166222186,0,0.5
2014-04-10 06:19:00,0.000806766617605,0,0.5
2014-04-10 06:24:00,0.000828864849326,0,0.5
2014-04-10 06:29:00,0.000820055749938,0,0.5
2014-04-10 06:34:00,0.000768943388645,0,0.5
2014-04-10 06:39:00,0.00080859453633,0,0.5
2014-04-10 06:44:00,0.00077235441555,0,0.5
2014-04-10 06:49:00,0.000873200038742,0,0.5
2014-04-10 06:54:00,0.000850057282036,0,0.5
2014-04-10 06:59:00,0.0133250925535,0,0.5
2014-04-10 07:04:00,0.000853970170555,0,0.5
2014-04-10 07:09:00,0.0134883403842,0,0.5
2014-04-10 07:14:00,0.000503956376256,0,0.5
2014-04-10 07:19:00,0.000789001532503,0,0.5
2014-04-10 07:24:00,0.000842757847666,0,0.5
2014-04-10 07:29:00,0.000720140406811,0,0.5
2014-04-10 07:34:00,0.000890442861351,0,0.5
2014-04-10 07:39:00,0.000717635178917,0,0.5
2014-04-10 07:44:00,0.000871800538468,0,0.5
2014-04-10 07:49:00,0.00076945341061,0,0.5
2014-04-10 07:54:00,0.000893939571946,0,0.5
2014-04-10 07:59:00,0.0130810980452,0,0.5
2014-04-10 08:04:00,0.000765332433129,0,0.5
2014-04-10 08:09:00,0.0129939454917,0,0.5
2014-04-10 08:14:00,0.000837588265024,0,0.5
2014-04-10 08:19:00,0.000756392768118,0,0.5
2014-04-10 08:24:00,0.000833063350146,0,0.5
2014-04-10 08:29:00,0.000835703223839,0,0.5
2014-04-10 08:34:00,0.000810344931715,0,0.5
2014-04-10 08:39:00,0.000841501153543,0,0.5
2014-04-10 08:44:00,0.000801654157423,0,0.5
2014-04-10 08:49:00,0.00084328827051,0,0.5
2014-04-10 08:54:00,0.000803416793336,0,0.5
2014-04-10 08:59:00,0.0130447844812,0,0.5
2014-04-10 09:04:00,0.000784594942722,0,0.5
2014-04-10 09:09:00,0.0129908853599,0,0.5
2014-04-10 09:14:00,0.000858470604378,0,0.5
2014-04-10 09:19:00,0.000788389506145,0,0.5
2014-04-10 09:24:00,0.000861440972305,0,0.5
2014-04-10 09:29:00,0.000790392872425,0,0.5
2014-04-10 09:34:00,0.000865039687294,0,0.5
2014-04-10 09:39:00,0.000809700263951,0,0.5
2014-04-10 09:44:00,0.000821859187608,0,0.5
2014-04-10 09:49:00,0.000761582751639,0,0.5
2014-04-10 09:54:00,0.000897950384683,0,0.5
2014-04-10 09:59:00,0.0129358437894,0,0.5
2014-04-10 10:04:00,0.000800487227166,0,0.5
2014-04-10 10:09:00,0.0130365017245,0,0.5
2014-04-10 10:14:00,0.000823882954767,0,0.5
2014-04-10 10:19:00,0.000858319637877,0,0.5
2014-04-10 10:24:00,0.000782946551729,0,0.5
2014-04-10 10:29:00,0.000870217430288,0,0.5
2014-04-10 10:34:00,0.000792314635191,0,0.5
2014-04-10 10:39:00,0.000861147199653,0,0.5
2014-04-10 10:44:00,0.000731250725307,0,0.5
2014-04-10 10:49:00,0.000821047232639,0,0.5
2014-04-10 10:54:00,0.0166518638299,0,0.5
2014-04-10 10:59:00,0.000766923701661,0,0.5
2014-04-10 11:04:00,0.000867312345172,0,0.5
2014-04-10 11:09:00,0.0129274386274,0,0.5
2014-04-10 11:14:00,0.000826004646143,0,0.5
2014-04-10 11:19:00,0.000814045651097,0,0.5
2014-04-10 11:24:00,0.00085684669444,0,0.5
2014-04-10 11:29:00,0.000809790027817,0,0.5
2014-04-10 11:34:00,0.000798316573681,0,0.5
2014-04-10 11:39:00,0.000805085585207,0,0.5
2014-04-10 11:44:00,0.000826922685681,0,0.5
2014-04-10 11:49:00,0.000796125519317,0,0.5
2014-04-10 11:54:00,0.000805334475926,0,0.5
2014-04-10 11:59:00,0.0130593507086,0,0.5
2014-04-10 12:04:00,0.000859845623597,0,0.5
2014-04-10 12:09:00,0.0130087973313,0,0.5
2014-04-10 12:14:00,0.000737795327168,0,0.5
2014-04-10 12:19:00,0.000864435821287,0,0.5
2014-04-10 12:24:00,0.000837951400663,0,0.5
2014-04-10 12:29:00,0.000787948847167,0,0.5
2014-04-10 12:34:00,0.000779641609393,0,0.5
2014-04-10 12:39:00,0.000862293729032,0,0.5
2014-04-10 12:44:00,0.000767682614346,0,0.5
2014-04-10 12:49:00,0.000805624168403,0,0.5
2014-04-10 12:54:00,0.000877814717485,0,0.5
2014-04-10 12:59:00,0.0130227923341,0,0.5
2014-04-10 13:04:00,0.000880238341865,0,0.5
2014-04-10 13:09:00,0.0129344157279,0,0.5
2014-04-10 13:14:00,0.000858637891583,0,0.5
2014-04-10 13:19:00,0.000767172592381,0,0.5
2014-04-10 13:24:00,0.000823552460533,0,0.5
2014-04-10 13:29:00,0.000809463613759,0,0.5
2014-04-10 13:34:00,0.000851464942661,0,0.5
2014-04-10 13:39:00,0.000842211104119,0,0.5
2014-04-10 13:44:00,0.000862456936061,0,0.5
2014-04-10 13:49:00,0.000766079105287,0,0.5
2014-04-10 13:54:00,0.000809006634078,0,0.5
2014-04-10 13:59:00,0.0130385826141,0,0.5
2014-04-10 14:04:00,0.000887321526922,0,0.5
2014-04-10 14:09:00,0.0130084709173,0,0.5
2014-04-10 14:14:00,0.000757139440275,0,0.5
2014-04-10 14:19:00,0.000851187490711,0,0.5
2014-04-10 14:24:00,0.000814168056368,0,0.5
2014-04-10 14:29:00,0.000858152350672,0,0.5
2014-04-10 14:34:00,0.000757094558343,0,0.5
2014-04-10 14:39:00,0.000809553377625,0,0.5
2014-04-10 14:44:00,0.000837828995391,0,0.5
2014-04-10 14:49:00,0.000842978177155,0,0.5
2014-04-10 14:54:00,0.000869711488498,0,0.5
2014-04-10 14:59:00,0.0129835410436,0,0.5
2014-04-10 15:04:00,0.000861967314974,0,0.5
2014-04-10 15:09:00,0.0129540413731,0,0.5
2014-04-10 15:14:00,0.00089491881412,0,0.5
2014-04-10 15:19:00,0.000822854750485,0,0.5
2014-04-10 15:24:00,0.000895167704839,0,0.5
2014-04-10 15:29:00,0.000802037693941,0,0.5
2014-04-10 15:34:00,0.000837188407803,0,0.5
2014-04-10 15:39:00,0.000838587908076,0,0.5
2014-04-10 15:44:00,0.000787704036623,0,0.5
2014-04-10 15:49:00,0.000836498858105,0,0.5
2014-04-10 15:54:00,0.000823940077227,0,0.5
2014-04-10 15:59:00,0.0131085576278,0,0.5
2014-04-10 16:04:00,0.000816930335333,0,0.5
2014-04-10 16:09:00,0.0130615540035,0,0.5
2014-04-10 16:14:00,0.000803979857586,0,0.5
2014-04-10 16:19:00,0.000824641867452,0,0.5
2014-04-10 16:24:00,0.000854578116738,0,0.5
2014-04-10 16:29:00,0.000768208957014,0,0.5
2014-04-10 16:34:00,0.000869540121117,0,0.5
2014-04-10 16:39:00,0.000757751466634,0,0.5
2014-04-10 16:44:00,0.000890989604898,0,0.5
2014-04-10 16:49:00,0.000813115371032,0,0.5
2014-04-10 16:54:00,0.00132260691367,0,0.5
2014-04-10 16:59:00,0.0129928438443,0,0.5
2014-04-10 17:04:00,0.000898627693853,0,0.5
2014-04-10 17:09:00,0.0130010449975,0,0.5
2014-04-10 17:14:00,0.000848037595052,0,0.5
2014-04-10 17:19:00,0.000825890401223,0,0.5
2014-04-10 17:24:00,0.000836502938281,0,0.5
2014-04-10 17:29:00,0.000908779171054,0,0.5
2014-04-10 17:34:00,0.000782407968534,0,0.5
2014-04-10 17:39:00,0.00122961970893,0,0.5
2014-04-10 17:44:00,0.00077232585432,0,0.5
2014-04-10 17:49:00,0.000832512526423,0,0.5
2014-04-10 17:54:00,0.000841880609885,0,0.5
2014-04-10 17:59:00,0.0131064767382,0,0.5
2014-04-10 18:04:00,0.000860135316074,0,0.5
2014-04-10 18:09:00,0.0132033809116,0,0.5
2014-04-10 18:14:00,0.0010003383143,0,0.5
2014-04-10 18:19:00,0.000897077227078,0,0.5
2014-04-10 18:24:00,0.000847001230419,0,0.5
2014-04-10 18:29:00,0.000987644887621,0,0.5
2014-04-10 18:34:00,0.000873852866858,0,0.5
2014-04-10 18:39:00,0.000788952570395,0,0.5
2014-04-10 18:44:00,0.000913708023329,0,0.5
2014-04-10 18:49:00,0.000871657732318,0,0.5
2014-04-10 18:54:00,0.000983177095204,0,0.5
2014-04-10 18:59:00,0.0130372361561,0,0.5
2014-04-10 19:04:00,0.000950621373103,0,0.5
2014-04-10 19:09:00,0.0129838674577,0,0.5
2014-04-10 19:14:00,0.00082558846822,0,0.5
2014-04-10 19:19:00,0.000908052899775,0,0.5
2014-04-10 19:24:00,0.000842443674135,0,0.5
2014-04-10 19:29:00,0.00180541002691,0,0.5
2014-04-10 19:34:00,0.000802853729086,0,0.5
2014-04-10 19:39:00,0.000880124096945,0,0.5
2014-04-10 19:44:00,0.000865827161209,0,0.5
2014-04-10 19:49:00,0.000893466271562,0,0.5
2014-04-10 19:54:00,0.000797174124478,0,0.5
2014-04-10 19:59:00,0.0130908088634,0,0.5
2014-04-10 20:04:00,0.000979721186366,0,0.5
2014-04-10 20:09:00,0.0158309732761,0,0.5
2014-04-10 20:14:00,0.000916780395649,0,0.5
2014-04-10 20:19:00,0.000659725244867,0,0.5
2014-04-10 20:24:00,0.000892336062887,0,0.5
2014-04-10 20:29:00,0.00196200309102,0,0.5
2014-04-10 20:34:00,0.000822842509957,0,0.5
2014-04-10 20:39:00,0.000832843020657,0,0.5
2014-04-10 20:44:00,0.000898362482431,0,0.5
2014-04-10 20:49:00,0.000804457238146,0,0.5
2014-04-10 20:54:00,0.00101118342137,0,0.5
2014-04-10 20:59:00,0.0131510322571,0,0.5
2014-04-10 21:04:00,0.000928078402228,0,0.5
2014-04-10 21:09:00,0.0130802004065,0,0.5
2014-04-10 21:14:00,0.0010143210765,0,0.5
2014-04-10 21:19:00,0.000862036677961,0,0.5
2014-04-10 21:24:00,0.000896824256183,0,0.5
2014-04-10 21:29:00,0.000921546040894,0,0.5
2014-04-10 21:34:00,0.000850754992085,0,0.5
2014-04-10 21:39:00,0.000903654470345,0,0.5
2014-04-10 21:44:00,0.00103621937961,0,0.5
2014-04-10 21:49:00,0.00393428251261,0,0.5
2014-04-10 21:54:00,0.000806562608819,0,0.5
2014-04-10 21:59:00,0.0132219049094,0,0.5
2014-04-10 22:04:00,0.000954085442292,0,0.5
2014-04-10 22:09:00,0.0129463706428,0,0.5
2014-04-10 22:14:00,0.000905617034868,0,0.5
2014-04-10 22:19:00,0.000752590044343,0,0.5
2014-04-10 22:24:00,0.000927119560933,0,0.5
2014-04-10 22:29:00,0.000796831389718,0,0.5
2014-04-10 22:34:00,0.000870245991518,0,0.5
2014-04-10 22:39:00,0.00371890635685,0,0.5
2014-04-10 22:44:00,0.000841448111258,0,0.5
2014-04-10 22:49:00,0.000764793849934,0,0.5
2014-04-10 22:54:00,0.000856512120031,0,0.5
2014-04-10 22:59:00,0.0130754674027,0,0.5
2014-04-10 23:04:00,0.00117932746295,0,0.5
2014-04-10 23:09:00,0.0130250772325,0,0.5
2014-04-10 23:14:00,0.000836555980565,0,0.5
2014-04-10 23:19:00,0.000861502174941,0,0.5
2014-04-10 23:24:00,0.000856956859185,0,0.5
2014-04-10 23:29:00,0.000861685782849,0,0.5
2014-04-10 23:34:00,0.000848217122784,0,0.5
2014-04-10 23:39:00,0.000889969560967,0,0.5
2014-04-10 23:44:00,0.000818762334234,0,0.5
2014-04-10 23:49:00,0.000790621362266,0,0.5
2014-04-10 23:54:00,0.000871800538468,0,0.5
2014-04-10 23:59:00,0.0130311158926,0,0.5
2014-04-11 00:04:00,0.000929302454945,0,0.5
2014-04-11 00:09:00,0.0131284280836,0,0.5
2014-04-11 00:14:00,0.000847421488518,0,0.5
2014-04-11 00:19:00,0.000804387875158,0,0.5
2014-04-11 00:24:00,0.000975889901361,0,0.5
2014-04-11 00:29:00,0.000859698737271,0,0.5
2014-04-11 00:34:00,0.00108796824832,0,0.5
2014-04-11 00:39:00,0.000847058352879,0,0.5
2014-04-11 00:44:00,0.000811630187068,0,0.5
2014-04-11 00:49:00,0.000925348764669,0,0.5
2014-04-11 00:54:00,0.000857115986038,0,0.5
2014-04-11 00:59:00,0.0130837501594,0,0.5
2014-04-11 01:04:00,0.000829876732905,0,0.5
2014-04-11 01:09:00,0.0131159835476,0,0.5
2014-04-11 01:14:00,0.000915307452212,0,0.5
2014-04-11 01:19:00,0.000907954975558,0,0.5
2014-04-11 01:24:00,0.000934039538961,0,0.5
2014-04-11 01:29:00,0.000930893723478,0,0.5
2014-04-11 01:34:00,0.000803743207394,0,0.5
2014-04-11 01:39:00,0.00109484334442,0,0.5
2014-04-11 01:44:00,0.000837767792755,0,0.5
2014-04-11 01:49:00,0.000814200697774,0,0.5
2014-04-11 01:54:00,0.00086935651321,0,0.5
2014-04-11 01:59:00,0.0129753398904,0,0.5
2014-04-11 02:04:00,0.000862693586253,0,0.5
2014-04-11 02:09:00,0.012957591126,0,0.5
2014-04-11 02:14:00,0.000841419550028,0,0.5
2014-04-11 02:19:00,0.000805803696134,0,0.5
2014-04-11 02:24:00,0.000836470296875,0,0.5
2014-04-11 02:29:00,0.000870515283115,0,0.5
2014-04-11 02:34:00,0.000853709039309,0,0.5
2014-04-11 02:39:00,0.000812234053075,0,0.5
2014-04-11 02:44:00,0.000790470395764,0,0.5
2014-04-11 02:49:00,0.000840142455027,0,0.5
2014-04-11 02:54:00,0.000850624426461,0,0.5
2014-04-11 02:59:00,0.012999780143,0,0.5
2014-04-11 03:04:00,0.0130297694346,0,0.5
2014-04-11 03:09:00,0.0130255668536,0,0.5
2014-04-11 03:14:00,0.000825180450647,0,0.5
2014-04-11 03:19:00,0.000850722350679,0,0.5
2014-04-11 03:24:00,0.000771538380405,0,0.5
2014-04-11 03:29:00,0.000823629983872,0,0.5
2014-04-11 03:34:00,0.000828701642297,0,0.5
2014-04-11 03:39:00,0.000812911362245,0,0.5
2014-04-11 03:44:00,0.000896346875623,0,0.5
2014-04-11 03:49:00,0.000765222268385,0,0.5
2014-04-11 03:54:00,0.000902050961285,0,0.5
2014-04-11 03:59:00,0.0130049619662,0,0.5
2014-04-11 04:04:00,0.000876158166142,0,0.5
2014-04-11 04:09:00,0.0130132447229,0,0.5
2014-04-11 04:14:00,0.000837943240312,0,0.5
2014-04-11 04:19:00,0.00075172504709,0,0.5
2014-04-11 04:24:00,0.000869952218866,0,0.5
2014-04-11 04:29:00,0.000791384355126,0,0.5
2014-04-11 04:34:00,0.000829578880078,0,0.5
2014-04-11 04:39:00,0.000852578830633,0,0.5
2014-04-11 04:44:00,0.00081471071974,0,0.5
2014-04-11 04:49:00,0.000857899379777,0,0.5
2014-04-11 04:54:00,0.00084467145008,0,0.5
2014-04-11 04:59:00,0.0130592283033,0,0.5
2014-04-11 05:04:00,0.000855859291915,0,0.5
2014-04-11 05:09:00,0.0130626964527,0,0.5
2014-04-11 05:14:00,0.000794187435848,0,0.5
2014-04-11 05:19:00,0.000786667671989,0,0.5
2014-04-11 05:24:00,0.000881580719679,0,0.5
2014-04-11 05:29:00,0.000799263174449,0,0.5
2014-04-11 05:34:00,0.000857442400096,0,0.5
2014-04-11 05:39:00,0.000827954970139,0,0.5
2014-04-11 05:44:00,0.000869878775703,0,0.5
2014-04-11 05:49:00,0.000773386700008,0,0.5
2014-04-11 05:54:00,0.000943717715778,0,0.5
2014-04-11 05:59:00,0.0130166312687,0,0.5
2014-04-11 06:04:00,0.00093375392666,0,0.5
2014-04-11 06:09:00,0.0129473090832,0,0.5
2014-04-11 06:14:00,0.00123851857218,0,0.5
2014-04-11 06:19:00,0.000855924574727,0,0.5
2014-04-11 06:24:00,0.00082866084054,0,0.5
2014-04-11 06:29:00,0.000885183514843,0,0.5
2014-04-11 06:34:00,0.000811058962467,0,0.5
2014-04-11 06:39:00,0.000823891115118,0,0.5
2014-04-11 06:44:00,0.000839044887757,0,0.5
2014-04-11 06:49:00,0.000871449643356,0,0.5
2014-04-11 06:54:00,0.000812385019577,0,0.5
2014-04-11 06:59:00,0.0130371953544,0,0.5
2014-04-11 07:04:00,0.000815787886131,0,0.5
2014-04-11 07:09:00,0.0130395210545,0,0.5
2014-04-11 07:14:00,0.000806509566535,0,0.5
2014-04-11 07:19:00,0.000805114146437,0,0.5
2014-04-11 07:24:00,0.000882172345159,0,0.5
2014-04-11 07:29:00,0.000792008622012,0,0.5
2014-04-11 07:34:00,0.000839269297422,0,0.5
2014-04-11 07:39:00,0.000796354009158,0,0.5
2014-04-11 07:44:00,0.000850661148043,0,0.5
2014-04-11 07:49:00,0.000821785744445,0,0.5
2014-04-11 07:54:00,0.000860376046442,0,0.5
2014-04-11 07:59:00,0.0129752990887,0,0.5
2014-04-11 08:04:00,0.00088685638689,0,0.5
2014-04-11 08:09:00,0.0129715861287,0,0.5
2014-04-11 08:14:00,0.000839216255137,0,0.5
2014-04-11 08:19:00,0.000811899478666,0,0.5
2014-04-11 08:24:00,0.000813519308428,0,0.5
2014-04-11 08:29:00,0.000862950637323,0,0.938621706772
2014-04-11 08:34:00,0.000748330340888,0,0.938693314885
2014-04-11 08:39:00,0.000881621521436,0,0.938651451483
2014-04-11 08:44:00,0.000815938852633,0,0.93868254358
2014-04-11 08:49:00,0.000833006227686,0,0.946726740636
2014-04-11 08:54:00,0.000832732855912,0,0.946760626941
2014-04-11 08:59:00,0.0130092869524,0,0.946737024566
2014-04-11 09:04:00,0.000865109050281,0,0.946720809734
2014-04-11 09:09:00,0.012978930445,0,0.938658609666
2014-04-11 09:14:00,0.00085298276803,0,0.938630989816
2014-04-11 09:19:00,0.000775043251352,0,0.938692501524
2014-04-11 09:24:00,0.000847874388024,0,0.938622843646
2014-04-11 09:29:00,0.000765450758225,0,0.938704130368
2014-04-11 09:34:00,0.000879646716386,0,0.938659563279
2014-04-11 09:39:00,0.000808080434188,0,0.938677003231
2014-04-11 09:44:00,0.000818480802109,0,0.938686973294
2014-04-11 09:49:00,0.000839677314994,0,0.946747810143
2014-04-11 09:54:00,0.000799736474833,0,0.946788724406
2014-04-11 09:59:00,0.0130452333006,0,0.946747227736
2014-04-11 10:04:00,0.000849216765837,0,0.946749585434
2014-04-11 10:09:00,0.0131186764636,0,0.938567134584
2014-04-11 10:14:00,0.000818333915782,0,0.938587827211
2014-04-11 10:19:00,0.00085171383338,0,0.938527386042
2014-04-11 10:24:00,0.000801050291416,0,0.938582457369
2014-04-11 10:29:00,0.000938099313806,0,0.938491334238
2014-04-11 10:34:00,0.000754573009745,0,0.938536136905
2014-04-11 10:39:00,0.000875917435774,0,0.938510733837
2014-04-11 10:44:00,0.000812846079434,0,0.938501542439
2014-04-11 10:49:00,0.000841444031083,0,0.946603290027
2014-04-11 10:54:00,0.000892956249597,0,0.946575842299
2014-04-11 10:59:00,0.0130156112248,0,0.94664050071
2014-04-11 11:04:00,0.00094392580474,0,0.946561701846
2014-04-11 11:09:00,0.0130181817355,0,0.938481244902
2014-04-11 11:14:00,0.000896485601598,0,0.93841428376
2014-04-11 11:19:00,0.000792441120639,0,0.938516460396
2014-04-11 11:24:00,0.000847201159029,0,0.938451498733
2014-04-11 11:29:00,0.000834593416042,0,0.938480486575
2014-04-11 11:34:00,0.000846682976712,0,0.938456751567
2014-04-11 11:39:00,0.000833973229332,0,0.938461992602
2014-04-11 11:44:00,0.000788148775777,0,0.938535482054
2014-04-11 11:49:00,0.000884383800401,0,0.94658813883
2014-04-11 11:54:00,0.000807937628038,0,0.946673422946
2014-04-11 11:59:00,0.0131219406042,0,0.946608361001
2014-04-11 12:04:00,0.000857013981645,0,0.946633119069
2014-04-11 12:09:00,0.0131128010105,0,0.938453136166
2014-04-11 12:14:00,0.000819537567621,0,0.938472542311
2014-04-11 12:19:00,0.000876211208426,0,0.938443345412
2014-04-11 12:24:00,0.000807243998165,0,0.938471014036
2014-04-11 12:29:00,0.000841109456673,0,0.938466008298
2014-04-11 12:34:00,0.000850914118938,0,0.938421967569
2014-04-11 12:39:00,0.000814057891624,0,0.93847131168
2014-04-11 12:44:00,0.000845279396263,0,0.938445114709
2014-04-11 12:49:00,0.000816391752138,0,0.946616659064
2014-04-11 12:54:00,0.000907946815206,0,0.946584702582
2014-04-11 12:59:00,0.0129650986493,0,0.946677332846
2014-04-11 13:04:00,0.000904074728444,0,0.946624331688
2014-04-11 13:09:00,0.0130805676223,0,0.938524660493
2014-04-11 13:14:00,0.000766340236533,0,0.938553326944
2014-04-11 13:19:00,0.000871816859171,0,0.938531807351
2014-04-11 13:24:00,0.000844092065127,0,0.938536588721
2014-04-11 13:29:00,0.000828179379804,0,0.938526691079
2014-04-11 13:34:00,0.000812727754338,0,0.938549504401
2014-04-11 13:39:00,0.000842537518177,0,0.938531181062
2014-04-11 13:44:00,0.00081355603001,0,0.938597311417
2014-04-11 13:49:00,0.000875448215566,0,0.946617424318
2014-04-11 13:54:00,0.00082277314697,0,0.946668402905
2014-04-11 13:59:00,0.0130988060078,0,0.946656970236
2014-04-11 14:04:00,0.000864664311127,0,0.946595302663
2014-04-11 14:09:00,0.013129203317,0,0.938455022607
2014-04-11 14:14:00,0.000783754426522,0,0.938497342588
2014-04-11 14:19:00,0.000881605200733,0,0.938459871613
2014-04-11 14:24:00,0.000797986079447,0,0.938470212681
2014-04-11 14:29:00,0.000830166425382,0,0.938478889774
2014-04-11 14:34:00,0.00091123543684,0,0.938410351353
2014-04-11 14:39:00,0.000831157908083,0,0.938441435787
2014-04-11 14:44:00,0.000890389819067,0,0.938393975195
2014-04-11 14:49:00,0.000809524816395,0,0.946560728476
2014-04-11 14:54:00,0.000948846496663,0,0.946507858527
2014-04-11 14:59:00,0.0128900642178,0,0.946657939658
2014-04-11 15:04:00,0.000904731636736,0,0.946582057423
2014-04-11 15:09:00,0.0130725296762,0,0.938486836259
2014-04-11 15:14:00,0.000844402158482,0,0.938454278342
2014-04-11 15:19:00,0.000867014492344,0,0.938428422193
2014-04-11 15:24:00,0.000816722246372,0,0.938494724721
2014-04-11 15:29:00,0.000830084821867,0,0.938495477188
2014-04-11 15:34:00,0.000793795738979,0,0.938563181216
2014-04-11 15:39:00,0.00100104826487,0,0.938428883217
2014-04-11 15:44:00,0.000822340648343,0,0.938517615955
2014-04-11 15:49:00,0.000893347946466,0,0.946487657486
2014-04-11 15:54:00,0.000883200549441,0,0.946501187904
2014-04-11 15:59:00,0.0130440092478,0,0.946519106341
2014-04-11 16:04:00,0.000886366765803,0,0.946492739724
2014-04-11 16:09:00,0.0130101845911,0,0.938420558593
2014-04-11 16:14:00,0.000806085228259,0,0.938428024163
2014-04-11 16:19:00,0.00142693292676,0,0.938008033497
2014-04-11 16:24:00,0.00080893727109,0,0.937997349685
2014-04-11 16:29:00,0.000771603663217,0,0.938159090989
2014-04-11 16:34:00,0.000872318720785,0,0.938123888266
2014-04-11 16:39:00,0.000831582246358,0,0.938167391483
2014-04-11 16:44:00,0.000828787325987,0,0.938205696373
2014-04-11 16:49:00,0.000856316271596,0,0.946328404439
2014-04-11 16:54:00,0.0009590591765,0,0.946282595849
2014-04-11 16:59:00,0.013333579319,0,0.946078426703
2014-04-11 17:04:00,0.000912284042001,0,0.946011246247
2014-04-11 17:09:00,0.0130743657552,0,0.938232417821
2014-04-11 17:14:00,0.000999848693212,0,0.938097987083
2014-04-11 17:19:00,0.000957251658654,0,0.937967043719
2014-04-11 17:24:00,0.000904405222678,0,0.937944390212
2014-04-11 17:29:00,0.000868613921228,0,0.937918237322
2014-04-11 17:34:00,0.000870303113978,0,0.937888907392
2014-04-11 17:39:00,0.000957749440092,0,0.937817201765
2014-04-11 17:44:00,0.000817958539616,0,0.937916931757
2014-04-11 17:49:00,0.000966383091924,0,0.946183328689
2014-04-11 17:54:00,0.0010317679079,0,0.946107855998
2014-04-11 17:59:00,0.0135482373638,0,0.94580770663
2014-04-11 18:04:00,0.00147083969772,0,0.945508072552
2014-04-11 18:09:00,0.0143742281373,0,0.936409538373
2014-04-11 18:14:00,0.00122721240525,0,0.936176888248
2014-04-11 18:19:00,0.00143492191083,0,0.935767145994
2014-04-11 18:24:00,0.00147444249289,0,0.935327780568
2014-04-11 18:29:00,0.00136422878623,0,0.935030853967
2014-04-11 18:34:00,0.00143217187239,0,0.934580174799
2014-04-11 18:39:00,0.00459082358834,0,0.931871204689
2014-04-11 18:44:00,0.00146433589762,0,0.931542194575
2014-04-11 18:49:00,0.00143086621616,0,0.940304639355
2014-04-11 18:54:00,0.00149215045553,0,0.940290039522
2014-04-11 18:59:00,0.0135540312133,0,0.940849934805
2014-04-11 19:04:00,0.0014878703512,0,0.94067244864
2014-04-11 19:09:00,0.0136262911254,0,0.931895238826
2014-04-11 19:14:00,0.00136765613384,0,0.931976250029
2014-04-11 19:19:00,0.00151860631492,0,0.931859110813
2014-04-11 19:24:00,0.00138794276754,0,0.931892687058
2014-04-11 19:29:00,0.00151971204254,0,0.934193015795
2014-04-11 19:34:00,0.00143832477738,0,0.93421223825
2014-04-11 19:39:00,0.0046984994257,0,0.931763174734
2014-04-11 19:44:00,0.00140962890151,0,0.931825878199
2014-04-11 19:49:00,0.00147483010958,0,0.940533579111
2014-04-11 19:54:00,0.00136879042269,0,0.940614863156
2014-04-11 19:59:00,0.0137573871714,0,0.940525372058
2014-04-11 20:04:00,0.00156807844558,0,0.94038835194
2014-04-11 20:09:00,0.0136816999117,0,0.93160050602
2014-04-11 20:14:00,0.00104715425055,0,0.931859640574
2014-04-11 20:19:00,0.000880732043128,0,0.932343475654
2014-04-11 20:24:00,0.000865888363845,0,0.932774666159
2014-04-11 20:29:00,0.000809843070101,0,0.935647792547
2014-04-11 20:34:00,0.000896828336359,0,0.93601944395
2014-04-11 20:39:00,0.000793885502845,0,0.936510375263
2014-04-11 20:44:00,0.00087508099975,0,0.936864481113
2014-04-11 20:49:00,0.000890304135376,0,0.945561616782
2014-04-11 20:54:00,0.000788026370505,0,0.946056773479
2014-04-11 20:59:00,0.013099622043,0,0.946423932978
2014-04-11 21:04:00,0.000842757847666,0,0.94655239022
2014-04-11 21:09:00,0.0130764466448,0,0.938450325027
2014-04-11 21:14:00,0.000805020302395,0,0.938493019484
2014-04-11 21:19:00,0.000876068402276,0,0.938446566189
2014-04-11 21:24:00,0.000826473866352,0,0.938495914931
2014-04-11 21:29:00,0.000880393388543,0,0.938435231334
2014-04-11 21:34:00,0.000840725920155,0,0.938459336348
2014-04-11 21:39:00,0.000899778303407,0,0.938452689597
2014-04-11 21:44:00,0.000785011120645,0,0.938454805054
2014-04-11 21:49:00,0.000825976084913,0,0.946605309759
2014-04-11 21:54:00,0.000852452345186,0,0.946599227342
2014-04-11 21:59:00,0.0130662054038,0,0.946605652775
2014-04-11 22:04:00,0.000955121806926,0,0.946511416607
2014-04-11 22:09:00,0.0131937924987,0,0.938318839647
2014-04-11 22:14:00,0.000894310867937,0,0.938271150336
2014-04-11 22:19:00,0.000810495898217,0,0.938320287717
2014-04-11 22:24:00,0.000887370489031,0,0.938287500347
2014-04-11 22:29:00,0.000806656452861,0,0.938352943969
2014-04-11 22:34:00,0.000879132614244,0,0.938286797529
2014-04-11 22:39:00,0.000825727194194,0,0.938286972517
2014-04-11 22:44:00,0.00087121707334,0,0.938273778501
2014-04-11 22:49:00,0.000873000110131,0,0.94639281214
2014-04-11 22:54:00,0.000806493245832,0,0.94648628814
2014-04-11 22:59:00,0.0131101080946,0,0.946538862377
2014-04-11 23:04:00,0.000874987155709,0,0.946550996567
2014-04-11 23:09:00,0.0130639205054,0,0.93840826621
2014-04-11 23:14:00,0.000763573877392,0,0.938495122413
2014-04-11 23:19:00,0.000912235079892,0,0.938421054029
2014-04-11 23:24:00,0.00078858535458,0,0.93848458145
2014-04-11 23:29:00,0.000901953037068,0,0.938431105259
2014-04-11 23:34:00,0.000793852861439,0,0.938485379797
2014-04-11 23:39:00,0.000828615958607,0,0.93851650044
2014-04-11 23:44:00,0.000877214931654,0,0.938466907007
2014-04-11 23:49:00,0.000824335854272,0,0.946623737974
2014-04-11 23:54:00,0.000893494832792,0,0.946612128786
2014-04-11 23:59:00,0.0131285096871,0,0.946571598682
2014-04-12 00:04:00,0.000937201675147,0,0.946462525307
2014-04-12 00:09:00,0.0130902376388,0,0.938362350454
2014-04-12 00:14:00,0.000947136903035,0,0.938250905378
2014-04-12 00:19:00,0.000784709187642,0,0.938333330623
2014-04-12 00:24:00,0.000917939165554,0,0.938246092312
2014-04-12 00:29:00,0.000780555568755,0,0.938279892375
2014-04-12 00:34:00,0.00081837471754,0,0.938321254038
2014-04-12 00:39:00,0.000847233800435,0,0.938305160525
2014-04-12 00:44:00,0.000830668286996,0,0.938349309475
2014-04-12 00:49:00,0.000910276595545,0,0.946476145395
2014-04-12 00:54:00,0.000826959407263,0,0.946545406297
2014-04-12 00:59:00,0.0130725296762,0,0.946556524894
2014-04-12 01:04:00,0.000834597496218,0,0.946627144082
2014-04-12 01:09:00,0.0130766506536,0,0.938466388963
2014-04-12 01:14:00,0.00080084628263,0,0.93854848369
2014-04-12 01:19:00,0.000844520483578,0,0.938503648001
2014-04-12 01:24:00,0.000830476518737,0,0.938495162468
2014-04-12 01:29:00,0.000780563729106,0,0.938541898789
2014-04-12 01:34:00,0.000896020461566,0,0.938496086595
2014-04-12 01:39:00,0.000783538177209,0,0.938584906565
2014-04-12 01:44:00,0.000875313569767,0,0.938551031153
2014-04-12 01:49:00,0.000782856787863,0,0.946701398405
2014-04-12 01:54:00,0.0008808544484,0,0.94667241283
2014-04-12 01:59:00,0.0130047987591,0,0.946717431364
2014-04-12 02:04:00,0.000901524618617,0,0.946654343261
2014-04-12 02:09:00,0.0130017794291,0,0.938591193535
2014-04-12 02:14:00,0.000897309797094,0,0.938544372123
2014-04-12 02:19:00,0.000796823229366,0,0.938532976984
2014-04-12 02:24:00,0.000828930132137,0,0.938579985232
2014-04-12 02:29:00,0.000916388698779,0,0.938486873457
2014-04-12 02:34:00,0.000930628512056,0,0.938448072036
2014-04-12 02:39:00,0.000839342740585,0,0.938408429471
2014-04-12 02:44:00,0.000816803849886,0,0.938453379488
2014-04-12 02:49:00,0.000889328973378,0,0.946504723263
2014-04-12 02:54:00,0.000764924415557,0,0.946590496988
2014-04-12 02:59:00,0.0130669398354,0,0.9465495952
2014-04-12 03:04:00,0.000868091658735,0,0.946567938763
2014-04-12 03:09:00,0.0170061046863,0,0.935601690277
2014-04-12 03:14:00,0.00911153588515,0,0.929360437379
2014-04-12 03:19:00,0.00082446233972,0,0.929432171153
2014-04-12 03:24:00,0.00084864146106,0,0.929496101644
2014-04-12 03:29:00,0.000840309742231,0,0.929495347871
2014-04-12 03:34:00,0.000913973234751,0,0.929419573244
2014-04-12 03:39:00,0.000819627331487,0,0.929473934319
2014-04-12 03:44:00,0.000828032493478,0,0.929424717015
2014-04-12 03:49:00,0.000838906161782,0,0.938477682136
2014-04-12 03:54:00,0.000896612087045,0,0.938457676144
2014-04-12 03:59:00,0.0130606971666,0,0.941177301025
2014-04-12 04:04:00,0.000935687929953,0,0.946512206127
2014-04-12 04:09:00,0.0129901509283,0,0.938426497888
2014-04-12 04:14:00,0.000927221565326,0,0.938371328848
2014-04-12 04:19:00,0.000808602696681,0,0.93839359418
2014-04-12 04:24:00,0.000833491768597,0,0.938450081696