timestamp,value,is_anomaly,anomaly_score,S(t)_reward_low_FP_rate,S(t)_reward_low_FN_rate,S(t)_standard,predicted_anomaly
2014-04-02 14:25:00,0.0,0,0.5,0.0,0.0,0.0,0
2014-04-02 14:30:00,0.0,0,0.5,0.0,0.0,0.0,0
2014-04-02 14:35:00,0.0,0,0.5,0.0,0.0,0.0,0
2014-04-02 14:40:00,0.0,0,0.5,0.0,0.0,0.0,0
2014-04-02 14:45:00,0.0,0,0.5,0.0,0.0,0.0,0
2014-04-02 14:50:00,0.0,0,0.5,0.0,0.0,0.0,0
2014-04-02 14:55:00,0.0,0,0.5,0.0,0.0,0.0,0
2014-04-02 15:00:00,0.0230903139483,0,0.5,0.0,0.0,0.0,0
2014-04-02 15:05:00,0.0566589580121,0,0.5,0.0,0.0,0.0,0
2014-04-02 15:10:00,0.499093712238,0,0.5,0.0,0.0,0.0,0
2014-04-02 15:15:00,0.0421715488145,0,0.5,0.0,0.0,0.0,0
2014-04-02 15:20:00,0.0018044038872,0,0.5,0.0,0.0,0.0,0
2014-04-02 15:25:00,0.0,0,0.5,0.0,0.0,0.0,0
2014-04-02 15:30:00,0.0,0,0.5,0.0,0.0,0.0,0
2014-04-02 15:35:00,0.0,0,0.5,0.0,0.0,0.0,0
2014-04-02 15:40:00,0.0,0,0.5,0.0,0.0,0.0,0
2014-04-02 15:45:00,0.0,0,0.5,0.0,0.0,0.0,0
2014-04-02 15:50:00,0.0,0,0.5,0.0,0.0,0.0,0
2014-04-02 15:55:00,0.0,0,0.5,0.0,0.0,0.0,0
2014-04-02 16:00:00,0.0,0,0.5,0.0,0.0,0.0,0
2014-04-02 16:05:00,0.0,0,0.5,0.0,0.0,0.0,0
2014-04-02 16:10:00,0.0,0,0.5,0.0,0.0,0.0,0
2014-04-02 16:15:00,0.0,0,0.5,0.0,0.0,0.0,0
2014-04-02 16:20:00,0.0,0,0.5,0.0,0.0,0.0,0
2014-04-02 16:25:00,0.0,0,0.5,0.0,0.0,0.0,0
2014-04-02 16:30:00,0.0,0,0.5,0.0,0.0,0.0,0
2014-04-02 16:35:00,0.0,0,0.5,0.0,0.0,0.0,0
2014-04-02 16:40:00,0.0,0,0.5,0.0,0.0,0.0,0
2014-04-02 16:45:00,0.0,0,0.5,0.0,0.0,0.0,0
2014-04-02 16:50:00,0.0,0,0.5,0.0,0.0,0.0,0
2014-04-02 16:55:00,0.0,0,0.5,0.0,0.0,0.0,0
2014-04-02 17:00:00,0.0,0,0.5,0.0,0.0,0.0,0
2014-04-02 17:05:00,0.0400163664227,0,0.5,0.0,0.0,0.0,0
2014-04-02 17:10:00,0.374792236714,0,0.5,0.0,0.0,0.0,0
2014-04-02 17:15:00,0.165920107782,0,0.5,0.0,0.0,0.0,0
2014-04-02 17:20:00,0.0405284247955,0,0.5,0.0,0.0,0.0,0
2014-04-02 17:25:00,1.13782518716e-05,0,0.5,0.0,0.0,0.0,0
2014-04-02 17:30:00,0.0,0,0.5,0.0,0.0,0.0,0
2014-04-02 17:35:00,0.0,0,0.5,0.0,0.0,0.0,0
2014-04-02 17:40:00,0.00145736396424,0,0.5,0.0,0.0,0.0,0
2014-04-02 17:45:00,0.0575711487979,0,0.5,0.0,0.0,0.0,0
2014-04-02 17:50:00,0.0141943414309,0,0.5,0.0,0.0,0.0,0
2014-04-02 17:55:00,0.0,0,0.5,0.0,0.0,0.0,0
2014-04-02 18:00:00,0.0,0,0.5,0.0,0.0,0.0,0
2014-04-02 18:05:00,0.0,0,0.5,0.0,0.0,0.0,0
2014-04-02 18:10:00,0.0,0,0.5,0.0,0.0,0.0,0
2014-04-02 18:15:00,0.0504787236505,0,0.5,0.0,0.0,0.0,0
2014-04-02 18:20:00,0.0222530105421,0,0.5,0.0,0.0,0.0,0
2014-04-02 18:25:00,0.041671875217,0,0.5,0.0,0.0,0.0,0
2014-04-02 18:30:00,0.446767457903,0,0.5,0.0,0.0,0.0,0
2014-04-02 18:35:00,0.124818858193,0,0.5,0.0,0.0,0.0,0
2014-04-02 18:40:00,0.00775143408753,0,0.5,0.0,0.0,0.0,0
2014-04-02 18:45:00,0.0,0,0.5,0.0,0.0,0.0,0
2014-04-02 18:50:00,0.0,0,0.5,0.0,0.0,0.0,0
2014-04-02 18:55:00,0.0,0,0.5,0.0,0.0,0.0,0
2014-04-02 19:00:00,0.0,0,0.5,0.0,0.0,0.0,0
2014-04-02 19:05:00,0.0,0,0.5,0.0,0.0,0.0,0
2014-04-02 19:10:00,0.00159295989185,0,0.5,0.0,0.0,0.0,0
2014-04-02 19:15:00,2.27565037432e-05,0,0.5,0.0,0.0,0.0,0
2014-04-02 19:20:00,0.0,0,0.5,0.0,0.0,0.0,0
2014-04-02 19:25:00,0.0,0,0.5,0.0,0.0,0.0,0
2014-04-02 19:30:00,0.0,0,0.5,0.0,0.0,0.0,0
2014-04-02 19:35:00,0.0,0,0.5,0.0,0.0,0.0,0
2014-04-02 19:40:00,0.0,0,0.5,0.0,0.0,0.0,0
2014-04-02 19:45:00,0.0,0,0.5,0.0,0.0,0.0,0
2014-04-02 19:50:00,0.0,0,0.5,0.0,0.0,0.0,0
2014-04-02 19:55:00,0.0,0,0.5,0.0,0.0,0.0,0
2014-04-02 20:00:00,0.0,0,0.5,0.0,0.0,0.0,0
2014-04-02 20:05:00,0.0,0,0.5,0.0,0.0,0.0,0
2014-04-02 20:10:00,0.0,0,0.5,0.0,0.0,0.0,0
2014-04-02 20:15:00,0.0,0,0.5,0.0,0.0,0.0,0
2014-04-02 20:20:00,0.0,0,0.5,0.0,0.0,0.0,0
2014-04-02 20:25:00,0.0,0,0.5,0.0,0.0,0.0,0
2014-04-02 20:30:00,0.0,0,0.5,0.0,0.0,0.0,0
2014-04-02 20:35:00,0.0,0,0.5,0.0,0.0,0.0,0
2014-04-02 20:40:00,0.0,0,0.5,0.0,0.0,0.0,0
2014-04-02 20:45:00,0.0,0,0.5,0.0,0.0,0.0,0
2014-04-02 20:50:00,0.0,0,0.5,0.0,0.0,0.0,0
2014-04-02 20:55:00,0.0,0,0.5,0.0,0.0,0.0,0
2014-04-02 21:00:00,0.0,0,0.5,0.0,0.0,0.0,0
2014-04-02 21:05:00,0.0,0,0.5,0.0,0.0,0.0,0
2014-04-02 21:10:00,0.0,0,0.5,0.0,0.0,0.0,0
2014-04-02 21:15:00,0.0,0,0.5,0.0,0.0,0.0,0
2014-04-02 21:20:00,0.0,0,0.5,0.0,0.0,0.0,0
2014-04-02 21:25:00,0.023742655944,0,0.5,0.0,0.0,0.0,0
2014-04-02 21:30:00,0.0596428786385,0,0.5,0.0,0.0,0.0,0
2014-04-02 21:35:00,0.498108717493,0,0.5,0.0,0.0,0.0,0
2014-04-02 21:40:00,0.0424626489067,0,0.5,0.0,0.0,0.0,0
2014-04-02 21:45:00,0.00167070618683,0,0.5,0.0,0.0,0.0,0
2014-04-02 21:50:00,0.0,0,0.5,0.0,0.0,0.0,0
2014-04-02 21:55:00,3.79275062387e-06,0,0.5,0.0,0.0,0.0,0
2014-04-02 22:00:00,0.000772772939613,0,0.5,0.0,0.0,0.0,0
2014-04-02 22:05:00,0.0535318601238,0,0.5,0.0,0.0,0.0,0
2014-04-02 22:10:00,0.523803075128,0,0.5,0.0,0.0,0.0,0
2014-04-02 22:15:00,0.0402117449338,0,0.5,0.0,0.0,0.0,0
2014-04-02 22:20:00,0.00386861026617,0,0.5,0.0,0.0,0.0,0
2014-04-02 22:25:00,0.0,0,0.5,0.0,0.0,0.0,0
2014-04-02 22:30:00,0.0232638165479,0,0.5,0.0,0.0,0.0,0
2014-04-02 22:35:00,0.384395646115,0,0.5,0.0,0.0,0.0,0
2014-04-02 22:40:00,0.169989721794,0,0.5,0.0,0.0,0.0,0
2014-04-02 22:45:00,0.044259483034,0,0.5,0.0,0.0,0.0,0
2014-04-02 22:50:00,3.31865679589e-05,0,0.5,0.0,0.0,0.0,0
2014-04-02 22:55:00,0.0,0,0.5,0.0,0.0,0.0,0
2014-04-02 23:00:00,0.0,0,0.5,0.0,0.0,0.0,0
2014-04-02 23:05:00,0.0,0,0.5,0.0,0.0,0.0,0
2014-04-02 23:10:00,0.0,0,0.5,0.0,0.0,0.0,0
2014-04-02 23:15:00,0.0,0,0.5,0.0,0.0,0.0,0
2014-04-02 23:20:00,0.0,0,0.5,0.0,0.0,0.0,0
2014-04-02 23:25:00,0.0,0,0.5,0.0,0.0,0.0,0
2014-04-02 23:30:00,0.0,0,0.5,0.0,0.0,0.0,0
2014-04-02 23:35:00,0.0,0,0.5,0.0,0.0,0.0,0
2014-04-02 23:40:00,0.0,0,0.5,0.0,0.0,0.0,0
2014-04-02 23:45:00,0.0,0,0.5,0.0,0.0,0.0,0
2014-04-02 23:50:00,0.0,0,0.5,0.0,0.0,0.0,0
2014-04-02 23:55:00,0.0,0,0.5,0.0,0.0,0.0,0
2014-04-03 00:00:00,0.0,0,0.5,0.0,0.0,0.0,0
2014-04-03 00:05:00,0.0,0,0.5,0.0,0.0,0.0,0
2014-04-03 00:10:00,0.0,0,0.5,0.0,0.0,0.0,0
2014-04-03 00:15:00,0.00178638230297,0,0.5,0.0,0.0,0.0,0
2014-04-03 00:20:00,0.0,0,0.5,0.0,0.0,0.0,0
2014-04-03 00:25:00,0.0,0,0.5,0.0,0.0,0.0,0
2014-04-03 00:30:00,0.0,0,0.5,0.0,0.0,0.0,0
2014-04-03 00:35:00,0.0,0,0.5,0.0,0.0,0.0,0
2014-04-03 00:40:00,0.0232486538791,0,0.5,0.0,0.0,0.0,0
2014-04-03 00:45:00,0.273219717488,0,0.5,0.0,0.0,0.0,0
2014-04-03 00:50:00,0.281710812025,0,0.5,0.0,0.0,0.0,0
2014-04-03 00:55:00,0.0442784653064,0,0.5,0.0,0.0,0.0,0
2014-04-03 01:00:00,3.03420049909e-05,0,0.5,0.0,0.0,0.0,0
2014-04-03 01:05:00,0.0,0,0.5,0.0,0.0,0.0,0
2014-04-03 01:10:00,0.0,0,0.5,0.0,0.0,0.0,0
2014-04-03 01:15:00,0.0,0,0.5,0.0,0.0,0.0,0
2014-04-03 01:20:00,0.0,0,0.5,0.0,0.0,0.0,0
2014-04-03 01:25:00,0.0,0,0.5,0.0,0.0,0.0,0
2014-04-03 01:30:00,0.0,0,0.5,0.0,0.0,0.0,0
2014-04-03 01:35:00,0.0,0,0.5,0.0,0.0,0.0,0
2014-04-03 01:40:00,0.0,0,0.5,0.0,0.0,0.0,0
2014-04-03 01:45:00,0.0,0,0.5,0.0,0.0,0.0,0
2014-04-03 01:50:00,0.0,0,0.5,0.0,0.0,0.0,0
2014-04-03 01:55:00,0.0,0,0.5,0.0,0.0,0.0,0
2014-04-03 02:00:00,0.0,0,0.5,0.0,0.0,0.0,0
2014-04-03 02:05:00,0.0,0,0.5,0.0,0.0,0.0,0
2014-04-03 02:10:00,0.0,0,0.5,0.0,0.0,0.0,0
2014-04-03 02:15:00,0.0,0,0.5,0.0,0.0,0.0,0
2014-04-03 02:20:00,0.0,0,0.5,0.0,0.0,0.0,0
2014-04-03 02:25:00,0.0,0,0.5,0.0,0.0,0.0,0
2014-04-03 02:30:00,0.0,0,0.5,0.0,0.0,0.0,0
2014-04-03 02:35:00,0.0,0,0.5,0.0,0.0,0.0,0
2014-04-03 02:40:00,0.0,0,0.5,0.0,0.0,0.0,0
2014-04-03 02:45:00,0.0,0,0.5,0.0,0.0,0.0,0
2014-04-03 02:50:00,0.0,0,0.5,0.0,0.0,0.0,0
2014-04-03 02:55:00,0.0,0,0.5,0.0,0.0,0.0,0
2014-04-03 03:00:00,0.0,0,0.5,0.0,0.0,0.0,0
2014-04-03 03:05:00,0.0,0,0.5,0.0,0.0,0.0,0
2014-04-03 03:10:00,0.0,0,0.5,0.0,0.0,0.0,0
2014-04-03 03:15:00,0.0,0,0.5,0.0,0.0,0.0,0
2014-04-03 03:20:00,0.0,0,0.5,0.0,0.0,0.0,0
2014-04-03 03:25:00,0.0,0,0.5,0.0,0.0,0.0,0
2014-04-03 03:30:00,0.0,0,0.5,0.0,0.0,0.0,0
2014-04-03 03:35:00,0.0,0,0.5,0.0,0.0,0.0,0
2014-04-03 03:40:00,0.0,0,0.5,0.0,0.0,0.0,0
2014-04-03 03:45:00,0.0,0,0.5,0.0,0.0,0.0,0
2014-04-03 03:50:00,0.0,0,0.5,0.0,0.0,0.0,0
2014-04-03 03:55:00,0.0,0,0.5,0.0,0.0,0.0,0
2014-04-03 04:00:00,0.0,0,0.5,0.0,0.0,0.0,0
2014-04-03 04:05:00,0.0,0,0.5,0.0,0.0,0.0,0
2014-04-03 04:10:00,0.0,0,0.5,0.0,0.0,0.0,0
2014-04-03 04:15:00,0.0,0,0.5,0.0,0.0,0.0,0
2014-04-03 04:20:00,0.0,0,0.5,0.0,0.0,0.0,0
2014-04-03 04:25:00,0.0,0,0.5,0.0,0.0,0.0,0
2014-04-03 04:30:00,0.0,0,0.5,0.0,0.0,0.0,0
2014-04-03 04:35:00,0.0,0,0.5,0.0,0.0,0.0,0
2014-04-03 04:40:00,0.0,0,0.5,0.0,0.0,0.0,0
2014-04-03 04:45:00,0.0,0,0.5,0.0,0.0,0.0,0
2014-04-03 04:50:00,0.0,0,0.5,0.0,0.0,0.0,0
2014-04-03 04:55:00,0.0,0,0.5,0.0,0.0,0.0,0
2014-04-03 05:00:00,0.0,0,0.5,0.0,0.0,0.0,0
2014-04-03 05:05:00,0.0,0,0.5,0.0,0.0,0.0,0
2014-04-03 05:10:00,0.00458070012176,0,0.5,0.0,0.0,0.0,0
2014-04-03 05:15:00,0.00446217666477,0,0.5,0.0,0.0,0.0,0
2014-04-03 05:20:00,2.8445629679e-06,0,0.5,0.0,0.0,0.0,0
2014-04-03 05:25:00,0.0,0,0.5,0.0,0.0,0.0,0
2014-04-03 05:30:00,0.0,0,0.5,0.0,0.0,0.0,0
2014-04-03 05:35:00,0.0,0,0.5,0.0,0.0,0.0,0
2014-04-03 05:40:00,0.0,0,0.5,0.0,0.0,0.0,0
2014-04-03 05:45:00,0.0,0,0.5,0.0,0.0,0.0,0
2014-04-03 05:50:00,0.0,0,0.5,0.0,0.0,0.0,0
2014-04-03 05:55:00,0.0,0,0.5,0.0,0.0,0.0,0
2014-04-03 06:00:00,0.0228001398206,0,0.5,0.0,0.0,0.0,0
2014-04-03 06:05:00,0.0508295484534,0,0.5,0.0,0.0,0.0,0
2014-04-03 06:10:00,0.503936506614,0,0.5,0.0,0.0,0.0,0
2014-04-03 06:15:00,0.0422588209694,0,0.5,0.0,0.0,0.0,0
2014-04-03 06:20:00,0.00205567593094,0,0.5,0.0,0.0,0.0,0
2014-04-03 06:25:00,0.0,0,0.5,0.0,0.0,0.0,0
2014-04-03 06:30:00,0.0,0,0.5,0.0,0.0,0.0,0
2014-04-03 06:35:00,0.0231301304221,0,0.5,0.0,0.0,0.0,0
2014-04-03 06:40:00,0.153688116634,0,0.5,0.0,0.0,0.0,0
2014-04-03 06:45:00,0.400712298198,0,0.5,0.0,0.0,0.0,0
2014-04-03 06:50:00,0.0420369367242,0,0.5,0.0,0.0,0.0,0
2014-04-03 06:55:00,0.00178259742304,0,0.5,0.0,0.0,0.0,0
2014-04-03 07:00:00,0.0,0,0.5,0.0,0.0,0.0,0
2014-04-03 07:05:00,0.0,0,0.5,0.0,0.0,0.0,0
2014-04-03 07:10:00,0.0,0,0.5,0.0,0.0,0.0,0
2014-04-03 07:15:00,0.0,0,0.5,0.0,0.0,0.0,0
2014-04-03 07:20:00,0.0,0,0.5,0.0,0.0,0.0,0
2014-04-03 07:25:00,0.0,0,0.5,0.0,0.0,0.0,0
2014-04-03 07:30:00,0.0,0,0.5,0.0,0.0,0.0,0
2014-04-03 07:35:00,0.0,0,0.5,0.0,0.0,0.0,0
2014-04-03 07:40:00,0.0,0,0.5,0.0,0.0,0.0,0
2014-04-03 07:45:00,0.0,0,0.5,0.0,0.0,0.0,0
2014-04-03 07:50:00,0.0,0,0.5,0.0,0.0,0.0,0
2014-04-03 07:55:00,0.0,0,0.5,0.0,0.0,0.0,0
2014-04-03 08:00:00,0.0488601376909,0,0.5,0.0,0.0,0.0,0
2014-04-03 08:05:00,0.469293859466,0,0.5,0.0,0.0,0.0,0
2014-04-03 08:10:00,0.097776180489,0,0.5,0.0,0.0,0.0,0
2014-04-03 08:15:00,0.00706494715058,0,0.5,0.0,0.0,0.0,0
2014-04-03 08:20:00,0.0,0,0.5,0.0,0.0,0.0,0
2014-04-03 08:25:00,0.0,0,0.5,0.0,0.0,0.0,0
2014-04-03 08:30:00,0.0,0,0.5,0.0,0.0,0.0,0
2014-04-03 08:35:00,0.0,0,0.5,0.0,0.0,0.0,0
2014-04-03 08:40:00,0.0,0,0.5,0.0,0.0,0.0,0
2014-04-03 08:45:00,0.0,0,0.5,0.0,0.0,0.0,0
2014-04-03 08:50:00,0.0488060845128,0,0.5,0.0,0.0,0.0,0
2014-04-03 08:55:00,0.434684778532,0,0.5,0.0,0.0,0.0,0
2014-04-03 09:00:00,0.131512424129,0,0.5,0.0,0.0,0.0,0
2014-04-03 09:05:00,0.00767557444523,0,0.5,0.0,0.0,0.0,0
2014-04-03 09:10:00,9.48187655967e-06,0,0.5,0.0,0.0,0.0,0
2014-04-03 09:15:00,0.0,0,0.5,0.0,0.0,0.0,0
2014-04-03 09:20:00,0.0,0,0.5,0.0,0.0,0.0,0
2014-04-03 09:25:00,0.0,0,0.5,0.0,0.0,0.0,0
2014-04-03 09:30:00,0.0,0,0.5,0.0,0.0,0.0,0
2014-04-03 09:35:00,0.0,0,0.5,0.0,0.0,0.0,0
2014-04-03 09:40:00,0.0,0,0.5,0.0,0.0,0.0,0
2014-04-03 09:45:00,0.0,0,0.5,0.0,0.0,0.0,0
2014-04-03 09:50:00,0.0,0,0.5,0.0,0.0,0.0,0
2014-04-03 09:55:00,0.0,0,0.5,0.0,0.0,0.0,0
2014-04-03 10:00:00,2.18083160872e-05,0,0.5,0.0,0.0,0.0,0
2014-04-03 10:05:00,0.0,0,0.5,0.0,0.0,0.0,0
2014-04-03 10:10:00,0.0,0,0.5,0.0,0.0,0.0,0
2014-04-03 10:15:00,0.0,0,0.5,0.0,0.0,0.0,0
2014-04-03 10:20:00,0.0,0,0.5,0.0,0.0,0.0,0
2014-04-03 10:25:00,0.0,0,0.5,0.0,0.0,0.0,0
2014-04-03 10:30:00,0.0,0,0.5,0.0,0.0,0.0,0
2014-04-03 10:35:00,0.0,0,0.5,0.0,0.0,0.0,0
2014-04-03 10:40:00,0.0,0,0.5,0.0,0.0,0.0,0
2014-04-03 10:45:00,0.0,0,0.5,0.0,0.0,0.0,0
2014-04-03 10:50:00,0.0,0,0.5,0.0,0.0,0.0,0
2014-04-03 10:55:00,0.0,0,0.5,0.0,0.0,0.0,0
2014-04-03 11:00:00,0.0,0,0.5,0.0,0.0,0.0,0
2014-04-03 11:05:00,0.0,0,0.5,0.0,0.0,0.0,0
2014-04-03 11:10:00,0.0,0,0.5,0.0,0.0,0.0,0
2014-04-03 11:15:00,0.0,0,0.5,0.0,0.0,0.0,0
2014-04-03 11:20:00,0.0,0,0.5,0.0,0.0,0.0,0
2014-04-03 11:25:00,0.0,0,0.5,0.0,0.0,0.0,0
2014-04-03 11:30:00,0.0,0,0.5,0.0,0.0,0.0,0
2014-04-03 11:35:00,0.0,0,0.5,0.0,0.0,0.0,0
2014-04-03 11:40:00,0.0,0,0.5,0.0,0.0,0.0,0
2014-04-03 11:45:00,0.0,0,0.5,0.0,0.0,0.0,0
2014-04-03 11:50:00,0.0,0,0.5,0.0,0.0,0.0,0
2014-04-03 11:55:00,0.0,0,0.5,0.0,0.0,0.0,0
2014-04-03 12:00:00,0.0,0,0.5,0.0,0.0,0.0,0
2014-04-03 12:05:00,0.0,0,0.5,0.0,0.0,0.0,0
2014-04-03 12:10:00,0.0,0,0.5,0.0,0.0,0.0,0
2014-04-03 12:15:00,0.0,0,0.5,0.0,0.0,0.0,0
2014-04-03 12:20:00,0.0,0,0.5,0.0,0.0,0.0,0
2014-04-03 12:25:00,0.0,0,0.5,0.0,0.0,0.0,0
2014-04-03 12:30:00,0.0,0,0.5,0.0,0.0,0.0,0
2014-04-03 12:35:00,0.0,0,0.5,0.0,0.0,0.0,0
2014-04-03 12:40:00,0.0,0,0.5,0.0,0.0,0.0,0
2014-04-03 12:45:00,0.0,0,0.5,0.0,0.0,0.0,0
2014-04-03 12:50:00,0.0,0,0.5,0.0,0.0,0.0,0
2014-04-03 12:55:00,0.0,0,0.5,0.0,0.0,0.0,0
2014-04-03 13:00:00,0.0,0,0.5,0.0,0.0,0.0,0
2014-04-03 13:05:00,0.0,0,0.5,0.0,0.0,0.0,0
2014-04-03 13:10:00,0.0,0,0.5,0.0,0.0,0.0,0
2014-04-03 13:15:00,0.0,0,0.5,0.0,0.0,0.0,0
2014-04-03 13:20:00,0.0,0,0.5,0.0,0.0,0.0,0
2014-04-03 13:25:00,0.0,0,0.5,0.0,0.0,0.0,0
2014-04-03 13:30:00,0.0,0,0.5,0.0,0.0,0.0,0
2014-04-03 13:35:00,0.0,0,0.5,0.0,0.0,0.0,0
2014-04-03 13:40:00,0.0,0,0.5,0.0,0.0,0.0,0
2014-04-03 13:45:00,0.0,0,0.5,0.0,0.0,0.0,0
2014-04-03 13:50:00,0.0,0,0.5,0.0,0.0,0.0,0
2014-04-03 13:55:00,0.0,0,0.5,0.0,0.0,0.0,0
2014-04-03 14:00:00,0.0,0,0.5,0.0,0.0,0.0,0
2014-04-03 14:05:00,0.0,0,0.5,0.0,0.0,0.0,0
2014-04-03 14:10:00,0.0,0,0.5,0.0,0.0,0.0,0
2014-04-03 14:15:00,0.0,0,0.5,0.0,0.0,0.0,0
2014-04-03 14:20:00,0.0,0,0.5,0.0,0.0,0.0,0
2014-04-03 14:25:00,0.0,0,0.5,0.0,0.0,0.0,0
2014-04-03 14:30:00,0.0,0,0.5,0.0,0.0,0.0,0
2014-04-03 14:35:00,0.0,0,0.5,0.0,0.0,0.0,0
2014-04-03 14:40:00,0.0,0,0.5,0.0,0.0,0.0,0
2014-04-03 14:45:00,0.0,0,0.5,0.0,0.0,0.0,0
2014-04-03 14:50:00,0.0,0,0.5,0.0,0.0,0.0,0
2014-04-03 14:55:00,0.0,0,0.5,0.0,0.0,0.0,0
2014-04-03 15:00:00,0.0,0,0.5,0.0,0.0,0.0,0
2014-04-03 15:05:00,0.0,0,0.5,0.0,0.0,0.0,0
2014-04-03 15:10:00,0.0,0,0.5,0.0,0.0,0.0,0
2014-04-03 15:15:00,0.0,0,0.5,0.0,0.0,0.0,0
2014-04-03 15:20:00,0.0,0,0.5,0.0,0.0,0.0,0
2014-04-03 15:25:00,0.0,0,0.5,0.0,0.0,0.0,0
2014-04-03 15:30:00,0.0,0,0.5,0.0,0.0,0.0,0
2014-04-03 15:35:00,0.0,0,0.5,0.0,0.0,0.0,0
2014-04-03 15:40:00,0.0,0,0.5,0.0,0.0,0.0,0
2014-04-03 15:45:00,0.0,0,0.5,0.0,0.0,0.0,0
2014-04-03 15:50:00,0.0,0,0.5,0.0,0.0,0.0,0
2014-04-03 15:55:00,0.0,0,0.5,0.0,0.0,0.0,0
2014-04-03 16:00:00,0.0,0,0.5,0.0,0.0,0.0,0
2014-04-03 16:05:00,0.0,0,0.5,0.0,0.0,0.0,0
2014-04-03 16:10:00,0.0,0,0.5,0.0,0.0,0.0,0
2014-04-03 16:15:00,0.0,0,0.5,0.0,0.0,0.0,0
2014-04-03 16:20:00,0.0,0,0.5,0.0,0.0,0.0,0
2014-04-03 16:25:00,0.0,0,0.5,0.0,0.0,0.0,0
2014-04-03 16:30:00,0.0,0,0.5,0.0,0.0,0.0,0
2014-04-03 16:35:00,0.0233708811941,0,0.5,0.0,0.0,0.0,0
2014-04-03 16:40:00,0.443445560232,0,0.5,0.0,0.0,0.0,0
2014-04-03 16:45:00,0.114300248621,0,0.5,0.0,0.0,0.0,0
2014-04-03 16:50:00,0.0421791880217,0,0.5,0.0,0.0,0.0,0
2014-04-03 16:55:00,3.22383803029e-05,0,0.5,0.0,0.0,0.0,0
2014-04-03 17:00:00,0.0,0,0.5,0.0,0.0,0.0,0
2014-04-03 17:05:00,0.0488041168382,0,0.5,0.0,0.0,0.0,0
2014-04-03 17:10:00,0.442727937738,0,0.5,0.0,0.0,0.0,0
2014-04-03 17:15:00,0.123484311846,0,0.5,0.0,0.0,0.0,0
2014-04-03 17:20:00,0.00709718229,0,0.5,0.0,0.0,0.0,0
2014-04-03 17:25:00,0.0,0,0.5,0.0,0.0,0.0,0
2014-04-03 17:30:00,0.0,0,0.5,0.0,0.0,0.0,0
2014-04-03 17:35:00,0.0,0,0.5,0.0,0.0,0.0,0
2014-04-03 17:40:00,0.0,0,0.5,0.0,0.0,0.0,0
2014-04-03 17:45:00,0.0,0,0.5,0.0,0.0,0.0,0
2014-04-03 17:50:00,0.0,0,0.5,0.0,0.0,0.0,0
2014-04-03 17:55:00,0.0,0,0.5,0.0,0.0,0.0,0
2014-04-03 18:00:00,0.0,0,0.5,0.0,0.0,0.0,0
2014-04-03 18:05:00,0.0,0,0.5,0.0,0.0,0.0,0
2014-04-03 18:10:00,0.0,0,0.5,0.0,0.0,0.0,0
2014-04-03 18:15:00,2.18083160872e-05,0,0.5,0.0,0.0,0.0,0
2014-04-03 18:20:00,0.0,0,0.5,0.0,0.0,0.0,0
2014-04-03 18:25:00,0.0,0,0.5,0.0,0.0,0.0,0
2014-04-03 18:30:00,0.0,0,0.5,0.0,0.0,0.0,0
2014-04-03 18:35:00,0.0,0,0.5,0.0,0.0,0.0,0
2014-04-03 18:40:00,0.0,0,0.5,0.0,0.0,0.0,0
2014-04-03 18:45:00,0.0,0,0.5,0.0,0.0,0.0,0
2014-04-03 18:50:00,0.0,0,0.5,0.0,0.0,0.0,0
2014-04-03 18:55:00,0.0418975790658,0,0.5,0.0,0.0,0.0,0
2014-04-03 19:00:00,0.37632586543,0,0.5,0.0,0.0,0.0,0
2014-04-03 19:05:00,0.163212819053,0,0.5,0.0,0.0,0.0,0
2014-04-03 19:10:00,0.0406128033112,0,0.5,0.0,0.0,0.0,0
2014-04-03 19:15:00,2.9393817335e-05,0,0.5,0.0,0.0,0.0,0
2014-04-03 19:20:00,0.0,0,0.5,0.0,0.0,0.0,0
2014-04-03 19:25:00,0.0,0,0.5,0.0,0.0,0.0,0
2014-04-03 19:30:00,0.0,0,0.5,0.0,0.0,0.0,0
2014-04-03 19:35:00,0.0,0,0.5,0.0,0.0,0.0,0
2014-04-03 19:40:00,0.0,0,0.5,0.0,0.0,0.0,0
2014-04-03 19:45:00,0.0,0,0.5,0.0,0.0,0.0,0
2014-04-03 19:50:00,0.0,0,0.5,0.0,0.0,0.0,0
2014-04-03 19:55:00,0.0,0,0.5,0.0,0.0,0.0,0
2014-04-03 20:00:00,0.0,0,0.5,0.0,0.0,0.0,0
2014-04-03 20:05:00,0.0,0,0.5,0.0,0.0,0.0,0
2014-04-03 20:10:00,0.0231206392859,0,0.5,0.0,0.0,0.0,0
2014-04-03 20:15:00,0.0590635720933,0,0.5,0.0,0.0,0.0,0
2014-04-03 20:20:00,0.495475505924,0,0.5,0.0,0.0,0.0,0
2014-04-03 20:25:00,0.131217272942,0,0.5,0.0,0.0,0.0,0
2014-04-03 20:30:00,0.0022272918779,0,0.5,0.0,0.0,0.0,0
2014-04-03 20:35:00,0.0,0,0.5,0.0,0.0,0.0,0
2014-04-03 20:40:00,0.0,0,0.5,0.0,0.0,0.0,0
2014-04-03 20:45:00,0.0,0,0.5,0.0,0.0,0.0,0
2014-04-03 20:50:00,0.0,0,0.5,0.0,0.0,0.0,0
2014-04-03 20:55:00,0.0,0,0.5,0.0,0.0,0.0,0
2014-04-03 21:00:00,0.0,0,0.5,0.0,0.0,0.0,0
2014-04-03 21:05:00,0.0,0,0.5,0.0,0.0,0.0,0
2014-04-03 21:10:00,0.0,0,0.5,0.0,0.0,0.0,0
2014-04-03 21:15:00,0.0,0,0.5,0.0,0.0,0.0,0
2014-04-03 21:20:00,0.0,0,0.5,0.0,0.0,0.0,0
2014-04-03 21:25:00,0.0233292127913,0,0.5,0.0,0.0,0.0,0
2014-04-03 21:30:00,0.22489825965,0,0.5,0.0,0.0,0.0,0
2014-04-03 21:35:00,0.330850590997,0,0.5,0.0,0.0,0.0,0
2014-04-03 21:40:00,0.0445960711326,0,0.5,0.0,0.0,0.0,0
2014-04-03 21:45:00,0.023413591307,0,0.5,0.0,0.0,0.0,0
2014-04-03 21:50:00,0.32074484585,0,0.5,0.0,0.0,0.0,0
2014-04-03 21:55:00,0.236124421851,0,0.5,0.0,0.0,0.0,0
2014-04-03 22:00:00,0.0439769481136,0,0.5,0.0,0.0,0.0,0
2014-04-03 22:05:00,3.22383803029e-05,0,0.5,0.0,0.0,0.0,0
2014-04-03 22:10:00,1.99119407753e-05,0,0.5,0.0,0.0,0.0,0
2014-04-03 22:15:00,0.0,0,0.5,0.0,0.0,0.0,0
2014-04-03 22:20:00,0.0,0,0.5,0.0,0.0,0.0,0
2014-04-03 22:25:00,0.0,0,0.5,0.0,0.0,0.0,0
2014-04-03 22:30:00,0.0,0,0.5,0.0,0.0,0.0,0
2014-04-03 22:35:00,0.0,0,0.5,0.0,0.0,0.0,0
2014-04-03 22:40:00,0.0,0,0.5,0.0,0.0,0.0,0
2014-04-03 22:45:00,0.0,0,0.798555404024,0.0,0.0,0.0,0
2014-04-03 22:50:00,0.0,0,0.827732613328,0.0,0.0,0.0,0
2014-04-03 22:55:00,0.0,0,0.827752962,0.0,0.0,0.0,0
2014-04-03 23:00:00,0.00110558657537,0,0.827066846896,0.0,0.0,0.0,0
2014-04-03 23:05:00,0.0531885587825,0,0.791341076894,0.0,0.0,0.0,0
2014-04-03 23:10:00,0.52383432643,0,0.68600084044,0.0,0.0,0.0,0
2014-04-03 23:15:00,0.0410944206009,0,0.721125184142,0.0,0.0,0.0,0
2014-04-03 23:20:00,0.00294317818798,0,0.723565624451,0.0,0.0,0.0,0
2014-04-03 23:25:00,0.0,0,0.723565624451,0.0,0.0,0.0,0
2014-04-03 23:30:00,0.0,0,0.723565624451,0.0,0.0,0.0,0
2014-04-03 23:35:00,0.0,0,0.723565624451,0.0,0.0,0.0,0
2014-04-03 23:40:00,0.0,0,0.723565624451,0.0,0.0,0.0,0
2014-04-03 23:45:00,0.0,0,0.730069648654,0.0,0.0,0.0,0
2014-04-03 23:50:00,0.0,0,0.729141201833,0.0,0.0,0.0,0
2014-04-03 23:55:00,0.0,0,0.682687514739,0.0,0.0,0.0,0
2014-04-04 00:00:00,0.0,0,0.803514838884,0.0,0.0,0.0,0
2014-04-04 00:05:00,0.0,0,0.831104495651,0.0,0.0,0.0,0
2014-04-04 00:10:00,0.0,0,0.832980091236,0.0,0.0,0.0,0
2014-04-04 00:15:00,0.0231889291683,0,0.817837886837,0.0,0.0,0.0,0
2014-04-04 00:20:00,0.171442328616,0,0.681551753907,0.0,0.0,0.0,0
2014-04-04 00:25:00,0.383094665981,0,0.691545667209,0.0,0.0,0.0,0
2014-04-04 00:30:00,0.0425300128246,0,0.728464560481,0.0,0.0,0.0,0
2014-04-04 00:35:00,0.00196748938613,0,0.730117770935,0.0,0.0,0.0,0
2014-04-04 00:40:00,0.0,0,0.730117770935,0.0,0.0,0.0,0
2014-04-04 00:45:00,0.0,0,0.730117770935,0.0,0.0,0.0,0
2014-04-04 00:50:00,0.0,0,0.730117770935,0.0,0.0,0.0,0
2014-04-04 00:55:00,0.0,0,0.730117770935,0.0,0.0,0.0,0
2014-04-04 01:00:00,0.0,0,0.730117770935,0.0,0.0,0.0,0
2014-04-04 01:05:00,0.0,0,0.710318920854,0.0,0.0,0.0,0
2014-04-04 01:10:00,0.0,0,0.547442711293,0.0,0.0,0.0,0
2014-04-04 01:15:00,3.79275062387e-05,0,0.803164690761,0.0,0.0,0.0,0
2014-04-04 01:20:00,0.0,0,0.831703565031,0.0,0.0,0.0,0
2014-04-04 01:25:00,0.0,0,0.832956006974,0.0,0.0,0.0,0
2014-04-04 01:30:00,0.0,0,0.832956006974,0.0,0.0,0.0,0
2014-04-04 01:35:00,0.0,0,0.832956006974,0.0,0.0,0.0,0
2014-04-04 01:40:00,0.0,0,0.832956006974,0.0,0.0,0.0,0
2014-04-04 01:45:00,0.0,0,0.832956006974,0.0,0.0,0.0,0
2014-04-04 01:50:00,0.0,0,0.832956006974,0.0,0.0,0.0,0
2014-04-04 01:55:00,0.0,0,0.832956006974,0.0,0.0,0.0,0
2014-04-04 02:00:00,0.0,0,0.832956006974,0.0,0.0,0.0,0
2014-04-04 02:05:00,0.0,0,0.832980091236,0.0,0.0,0.0,0
2014-04-04 02:10:00,0.0,0,0.832980091236,0.0,0.0,0.0,0
2014-04-04 02:15:00,0.0,0,0.832980091236,0.0,0.0,0.0,0
2014-04-04 02:20:00,0.0,0,0.832980091236,0.0,0.0,0.0,0
2014-04-04 02:25:00,0.0,0,0.832980091236,0.0,0.0,0.0,0
2014-04-04 02:30:00,0.0,0,0.832980091236,0.0,0.0,0.0,0
2014-04-04 02:35:00,0.0,0,0.832980091236,0.0,0.0,0.0,0
2014-04-04 02:40:00,0.0,0,0.832980091236,0.0,0.0,0.0,0
2014-04-04 02:45:00,0.0,0,0.832980091236,0.0,0.0,0.0,0
2014-04-04 02:50:00,0.0,0,0.832980091236,0.0,0.0,0.0,0
2014-04-04 02:55:00,0.0,0,0.832980091236,0.0,0.0,0.0,0
2014-04-04 03:00:00,0.0,0,0.832980091236,0.0,0.0,0.0,0
2014-04-04 03:05:00,0.0,0,0.832980091236,0.0,0.0,0.0,0
2014-04-04 03:10:00,0.0,0,0.832980091236,0.0,0.0,0.0,0
2014-04-04 03:15:00,0.0,0,0.832980091236,0.0,0.0,0.0,0
2014-04-04 03:20:00,0.0,0,0.832980091236,0.0,0.0,0.0,0
2014-04-04 03:25:00,0.0,0,0.832980091236,0.0,0.0,0.0,0
2014-04-04 03:30:00,0.0,0,0.832980091236,0.0,0.0,0.0,0
2014-04-04 03:35:00,0.0,0,0.832980091236,0.0,0.0,0.0,0
2014-04-04 03:40:00,0.0,0,0.832980091236,0.0,0.0,0.0,0
2014-04-04 03:45:00,0.0,0,0.832980091236,0.0,0.0,0.0,0
2014-04-04 03:50:00,0.0,0,0.832980091236,0.0,0.0,0.0,0
2014-04-04 03:55:00,0.0,0,0.832980091236,0.0,0.0,0.0,0
2014-04-04 04:00:00,0.0,0,0.832980091236,0.0,0.0,0.0,0
2014-04-04 04:05:00,0.0,0,0.832980091236,0.0,0.0,0.0,0
2014-04-04 04:10:00,0.0,0,0.832980091236,0.0,0.0,0.0,0
2014-04-04 04:15:00,0.0,0,0.832980091236,0.0,0.0,0.0,0
2014-04-04 04:20:00,0.0,0,0.832980091236,0.0,0.0,0.0,0
2014-04-04 04:25:00,0.0,0,0.832980091236,0.0,0.0,0.0,0
2014-04-04 04:30:00,0.0,0,0.832980091236,0.0,0.0,0.0,0
2014-04-04 04:35:00,0.0,0,0.832980091236,0.0,0.0,0.0,0
2014-04-04 04:40:00,0.0,0,0.832980091236,0.0,0.0,0.0,0
2014-04-04 04:45:00,0.0,0,0.832980091236,0.0,0.0,0.0,0
2014-04-04 04:50:00,0.0,0,0.832980091236,0.0,0.0,0.0,0
2014-04-04 04:55:00,0.0,0,0.832980091236,0.0,0.0,0.0,0
2014-04-04 05:00:00,0.0,0,0.832980091236,0.0,0.0,0.0,0
2014-04-04 05:05:00,3.79275062387e-06,0,0.832977682911,0.0,0.0,0.0,0
2014-04-04 05:10:00,0.0,0,0.832977682911,0.0,0.0,0.0,0
2014-04-04 05:15:00,0.0,0,0.832977682911,0.0,0.0,0.0,0
2014-04-04 05:20:00,0.0,0,0.832977682911,0.0,0.0,0.0,0
2014-04-04 05:25:00,0.0,0,0.832977682911,0.0,0.0,0.0,0
2014-04-04 05:30:00,0.0,0,0.832977682911,0.0,0.0,0.0,0
2014-04-04 05:35:00,0.0,0,0.832977682911,0.0,0.0,0.0,0
2014-04-04 05:40:00,0.0,0,0.832977682911,0.0,0.0,0.0,0
2014-04-04 05:45:00,0.0,0,0.832977682911,0.0,0.0,0.0,0
2014-04-04 05:50:00,0.0,0,0.832977682911,0.0,0.0,0.0,0
2014-04-04 05:55:00,0.0,0,0.832980091236,0.0,0.0,0.0,0
2014-04-04 06:00:00,0.00188499752304,0,0.831780393307,0.0,0.0,0.0,0
2014-04-04 06:05:00,2.56010667111e-05,0,0.831764061563,0.0,0.0,0.0,0
2014-04-04 06:10:00,0.0,0,0.831764061563,0.0,0.0,0.0,0
2014-04-04 06:15:00,0.0461065507359,0,0.800705286538,0.0,0.0,0.0,0
2014-04-04 06:20:00,0.437690690816,0,0.605149218204,0.0,0.0,0.0,0
2014-04-04 06:25:00,0.103898657814,0,0.702078794125,0.0,0.0,0.0,0
2014-04-04 06:30:00,0.0403122120829,0,0.736535063228,0.0,0.0,0.0,0
2014-04-04 06:35:00,3.12901926469e-05,0,0.736560997029,0.0,0.0,0.0,0
2014-04-04 06:40:00,0.0,0,0.736560997029,0.0,0.0,0.0,0
2014-04-04 06:45:00,0.0,0,0.736560997029,0.0,0.0,0.0,0
2014-04-04 06:50:00,0.0,0,0.734996359753,0.0,0.0,0.0,0
2014-04-04 06:55:00,0.0,0,0.734975077202,0.0,0.0,0.0,0
2014-04-04 07:00:00,0.0,0,0.734975077202,0.0,0.0,0.0,0
2014-04-04 07:05:00,0.0,0,0.695294137789,0.0,0.0,0.0,0
2014-04-04 07:10:00,0.0,0,0.725722869975,0.0,0.0,0.0,0
2014-04-04 07:15:00,0.0,0,0.806101262071,0.0,0.0,0.0,0
2014-04-04 07:20:00,0.0,0,0.832960221882,0.0,0.0,0.0,0
2014-04-04 07:25:00,0.0,0,0.832980091236,0.0,0.0,0.0,0
2014-04-04 07:30:00,0.0,0,0.832980091236,0.0,0.0,0.0,0
2014-04-04 07:35:00,0.0,0,0.832980091236,0.0,0.0,0.0,0
2014-04-04 07:40:00,0.0,0,0.832980091236,0.0,0.0,0.0,0
2014-04-04 07:45:00,0.0,0,0.832980091236,0.0,0.0,0.0,0
2014-04-04 07:50:00,0.0,0,0.832980091236,0.0,0.0,0.0,0
2014-04-04 07:55:00,0.0,0,0.832980091236,0.0,0.0,0.0,0
2014-04-04 08:00:00,0.0,0,0.832980091236,0.0,0.0,0.0,0
2014-04-04 08:05:00,0.0,0,0.800947079529,0.0,0.0,0.0,0
2014-04-04 08:10:00,0.0,0,0.800947079529,0.0,0.0,0.0,0
2014-04-04 08:15:00,0.0,0,0.800947079529,0.0,0.0,0.0,0
2014-04-04 08:20:00,0.0,0,0.800947079529,0.0,0.0,0.0,0
2014-04-04 08:25:00,0.0,0,0.800947079529,0.0,0.0,0.0,0
2014-04-04 08:30:00,0.0,0,0.800947079529,0.0,0.0,0.0,0
2014-04-04 08:35:00,0.0,0,0.800947079529,0.0,0.0,0.0,0
2014-04-04 08:40:00,0.0,0,0.800947079529,0.0,0.0,0.0,0
2014-04-04 08:45:00,0.0,0,0.800947079529,0.0,0.0,0.0,0
2014-04-04 08:50:00,0.0,0,0.800947079529,0.0,0.0,0.0,0
2014-04-04 08:55:00,0.0,0,0.800947079529,0.0,0.0,0.0,0
2014-04-04 09:00:00,0.0,0,0.800947079529,0.0,0.0,0.0,0
2014-04-04 09:05:00,0.0,0,0.800947079529,0.0,0.0,0.0,0
2014-04-04 09:10:00,0.0,0,0.800947079529,0.0,0.0,0.0,0
2014-04-04 09:15:00,0.0,0,0.800947079529,0.0,0.0,0.0,0
2014-04-04 09:20:00,0.0,0,0.800947079529,0.0,0.0,0.0,0
2014-04-04 09:25:00,0.0,0,0.800947079529,0.0,0.0,0.0,0
2014-04-04 09:30:00,0.0,0,0.800947079529,0.0,0.0,0.0,0
2014-04-04 09:35:00,0.0,0,0.800947079529,0.0,0.0,0.0,0
2014-04-04 09:40:00,7.58550124774e-06,0,0.800941114858,0.0,0.0,0.0,0
2014-04-04 09:45:00,3.79275062387e-06,0,0.800938132482,0.0,0.0,0.0,0
2014-04-04 09:50:00,0.0,0,0.800938132482,0.0,0.0,0.0,0
2014-04-04 09:55:00,0.0,0,0.800938132482,0.0,0.0,0.0,0
2014-04-04 10:00:00,0.0,0,0.800938132482,0.0,0.0,0.0,0
2014-04-04 10:05:00,0.0,0,0.800938132482,0.0,0.0,0.0,0
2014-04-04 10:10:00,0.0,0,0.800938132482,0.0,0.0,0.0,0
2014-04-04 10:15:00,0.0,0,0.800938132482,0.0,0.0,0.0,0
2014-04-04 10:20:00,0.0,0,0.800938132482,0.0,0.0,0.0,0
2014-04-04 10:25:00,0.0,0,0.800938132482,0.0,0.0,0.0,0
2014-04-04 10:30:00,0.0,0,0.800944097207,0.0,0.0,0.0,0
2014-04-04 10:35:00,0.0,0,0.800947079529,0.0,0.0,0.0,0
2014-04-04 10:40:00,0.0,0,0.800947079529,0.0,0.0,0.0,0
2014-04-04 10:45:00,0.0,0,0.800947079529,0.0,0.0,0.0,0
2014-04-04 10:50:00,0.0506758383451,0,0.758744755085,0.0,0.0,0.0,0
2014-04-04 10:55:00,0.527329842447,0,0.783203364624,0.0,0.0,0.0,0
2014-04-04 11:00:00,0.0404364070725,0,0.81512845941,0.0,0.0,0.0,0
2014-04-04 11:05:00,0.00443277729165,0,0.818441175323,0.0,0.0,0.0,0
2014-04-04 11:10:00,3.79275062387e-06,0,0.81844399373,0.0,0.0,0.0,0
2014-04-04 11:15:00,0.0,0,0.81844399373,0.0,0.0,0.0,0
2014-04-04 11:20:00,0.0,0,0.81844399373,0.0,0.0,0.0,0
2014-04-04 11:25:00,0.0,0,0.81844399373,0.0,0.0,0.0,0
2014-04-04 11:30:00,0.0,0,0.81844399373,0.0,0.0,0.0,0
2014-04-04 11:35:00,0.0,0,0.81844399373,0.0,0.0,0.0,0
2014-04-04 11:40:00,0.0,0,0.778373833651,0.0,0.0,0.0,0
2014-04-04 11:45:00,0.0,0,0.763811037124,0.0,0.0,0.0,0
2014-04-04 11:50:00,0.0,0,0.797440131753,0.0,0.0,0.0,0
2014-04-04 11:55:00,0.0,0,0.800944097207,0.0,0.0,0.0,0
2014-04-04 12:00:00,0.0,0,0.800947079529,0.0,0.0,0.0,0
2014-04-04 12:05:00,0.0,0,0.800947079529,0.0,0.0,0.0,0
2014-04-04 12:10:00,0.0,0,0.800947079529,0.0,0.0,0.0,0
2014-04-04 12:15:00,0.0,0,0.800947079529,0.0,0.0,0.0,0
2014-04-04 12:20:00,0.0,0,0.800947079529,0.0,0.0,0.0,0
2014-04-04 12:25:00,0.0,0,0.800947079529,0.0,0.0,0.0,0
2014-04-04 12:30:00,0.0,0,0.800947079529,0.0,0.0,0.0,0
2014-04-04 12:35:00,0.0,0,0.800947079529,0.0,0.0,0.0,0
2014-04-04 12:40:00,0.0,0,0.800947079529,0.0,0.0,0.0,0
2014-04-04 12:45:00,0.0,0,0.800947079529,0.0,0.0,0.0,0
2014-04-04 12:50:00,0.0,0,0.800947079529,0.0,0.0,0.0,0
2014-04-04 12:55:00,0.0,0,0.800947079529,0.0,0.0,0.0,0
2014-04-04 13:00:00,0.0,0,0.800947079529,0.0,0.0,0.0,0
2014-04-04 13:05:00,0.0,0,0.800947079529,0.0,0.0,0.0,0
2014-04-04 13:10:00,0.0,0,0.800947079529,0.0,0.0,0.0,0
2014-04-04 13:15:00,0.0,0,0.800947079529,0.0,0.0,0.0,0
2014-04-04 13:20:00,0.0,0,0.800947079529,0.0,0.0,0.0,0
2014-04-04 13:25:00,0.0,0,0.800947079529,0.0,0.0,0.0,0
2014-04-04 13:30:00,0.0,0,0.800947079529,0.0,0.0,0.0,0
2014-04-04 13:35:00,0.0,0,0.800947079529,0.0,0.0,0.0,0
2014-04-04 13:40:00,0.0,0,0.800947079529,0.0,0.0,0.0,0
2014-04-04 13:45:00,0.0,0,0.800947079529,0.0,0.0,0.0,0
2014-04-04 13:50:00,0.0,0,0.800947079529,0.0,0.0,0.0,0
2014-04-04 13:55:00,0.0,0,0.800947079529,0.0,0.0,0.0,0
2014-04-04 14:00:00,0.0,0,0.800947079529,0.0,0.0,0.0,0
2014-04-04 14:05:00,0.0,0,0.800947079529,0.0,0.0,0.0,0
2014-04-04 14:10:00,0.0,0,0.800947079529,0.0,0.0,0.0,0
2014-04-04 14:15:00,0.0,0,0.800947079529,0.0,0.0,0.0,0
2014-04-04 14:20:00,0.0,0,0.800947079529,0.0,0.0,0.0,0
2014-04-04 14:25:00,0.0,0,0.800947079529,0.0,0.0,0.0,0
2014-04-04 14:30:00,0.0,0,0.800947079529,0.0,0.0,0.0,0
2014-04-04 14:35:00,0.0,0,0.800947079529,0.0,0.0,0.0,0
2014-04-04 14:40:00,0.0,0,0.800947079529,0.0,0.0,0.0,0
2014-04-04 14:45:00,0.0,0,0.800947079529,0.0,0.0,0.0,0
2014-04-04 14:50:00,0.0,0,0.800947079529,0.0,0.0,0.0,0
2014-04-04 14:55:00,0.0,0,0.800947079529,0.0,0.0,0.0,0
2014-04-04 15:00:00,0.0,0,0.800947079529,0.0,0.0,0.0,0
2014-04-04 15:05:00,0.0,0,0.800947079529,0.0,0.0,0.0,0
2014-04-04 15:10:00,0.0,0,0.800947079529,0.0,0.0,0.0,0
2014-04-04 15:15:00,0.0,0,0.800947079529,0.0,0.0,0.0,0
2014-04-04 15:20:00,0.0,0,0.800947079529,0.0,0.0,0.0,0
2014-04-04 15:25:00,0.0,0,0.800947079529,0.0,0.0,0.0,0
2014-04-04 15:30:00,0.0,0,0.800947079529,0.0,0.0,0.0,0
2014-04-04 15:35:00,0.0,0,0.800947079529,0.0,0.0,0.0,0
2014-04-04 15:40:00,0.0,0,0.800947079529,0.0,0.0,0.0,0
2014-04-04 15:45:00,0.0,0,0.800947079529,0.0,0.0,0.0,0
2014-04-04 15:50:00,0.0,0,0.800947079529,0.0,0.0,0.0,0