timestamp,value,is_anomaly,anomaly_score,S(t)_reward_low_FP_rate,S(t)_reward_low_FN_rate,S(t)_standard,predicted_anomaly
2014-04-02 14:29:00,0.413125269845,0,0.5,0.0,0.0,0.0,0
2014-04-02 14:34:00,0.399864306421,0,0.5,0.0,0.0,0.0,0
2014-04-02 14:39:00,0.420896811201,0,0.5,0.0,0.0,0.0,0
2014-04-02 14:44:00,0.388556508152,0,0.5,0.0,0.0,0.0,0
2014-04-02 14:49:00,0.389234976048,0,0.5,0.0,0.0,0.0,0
2014-04-02 14:54:00,0.413125269845,0,0.5,0.0,0.0,0.0,0
2014-04-02 14:59:00,0.384177306277,0,0.5,0.0,0.0,0.0,0
2014-04-02 15:04:00,0.412282324883,0,0.5,0.0,0.0,0.0,0
2014-04-02 15:09:00,0.439441600362,0,0.5,0.0,0.0,0.0,0
2014-04-02 15:14:00,0.3976849853,0,0.5,0.0,0.0,0.0,0
2014-04-02 15:19:00,0.41577746253,0,0.5,0.0,0.0,0.0,0
2014-04-02 15:24:00,0.42447418738,0,0.5,0.0,0.0,0.0,0
2014-04-02 15:29:00,0.370669627254,0,0.5,0.0,0.0,0.0,0
2014-04-02 15:34:00,0.411439379921,0,0.5,0.0,0.0,0.0,0
2014-04-02 15:39:00,0.39889800366,0,0.5,0.0,0.0,0.0,0
2014-04-02 15:44:00,0.407820884475,0,0.5,0.0,0.0,0.0,0
2014-04-02 15:49:00,0.407101297313,0,0.5,0.0,0.0,0.0,0
2014-04-02 15:54:00,0.42229486626,0,0.5,0.0,0.0,0.0,0
2014-04-02 15:59:00,0.369456608894,0,0.5,0.0,0.0,0.0,0
2014-04-02 16:04:00,0.406607866116,0,0.5,0.0,0.0,0.0,0
2014-04-02 16:09:00,0.435946462715,0,0.5,0.0,0.0,0.0,0
2014-04-02 16:14:00,0.392627315529,0,0.5,0.0,0.0,0.0,0
2014-04-02 16:19:00,0.409260058801,0,0.5,0.0,0.0,0.0,0
2014-04-02 16:24:00,0.417237196488,0,0.5,0.0,0.0,0.0,0
2014-04-02 16:29:00,0.422541581858,0,0.5,0.0,0.0,0.0,0
2014-04-02 16:34:00,0.368963177697,0,0.5,0.0,0.0,0.0,0
2014-04-02 16:39:00,0.38368387508,0,0.5,0.0,0.0,0.0,0
2014-04-02 16:44:00,0.404675260593,0,0.5,0.0,0.0,0.0,0
2014-04-02 16:49:00,0.375974012624,0,0.5,0.0,0.0,0.0,0
2014-04-02 16:54:00,0.408314315673,0,0.5,0.0,0.0,0.0,0
2014-04-02 16:59:00,0.403955673431,0,0.5,0.0,0.0,0.0,0
2014-04-02 17:04:00,0.426879664467,0,0.5,0.0,0.0,0.0,0
2014-04-02 17:09:00,0.401036205514,0,0.5,0.0,0.0,0.0,0
2014-04-02 17:14:00,0.378009416312,0,0.5,0.0,0.0,0.0,0
2014-04-02 17:19:00,0.404346306462,0,0.5,0.0,0.0,0.0,0
2014-04-02 17:24:00,0.383005407184,0,0.5,0.0,0.0,0.0,0
2014-04-02 17:29:00,0.392133884332,0,0.5,0.0,0.0,0.0,0
2014-04-02 17:34:00,0.431238306709,0,0.5,0.0,0.0,0.0,0
2014-04-02 17:39:00,0.369456608894,0,0.5,0.0,0.0,0.0,0
2014-04-02 17:44:00,0.406237792718,0,0.5,0.0,0.0,0.0,0
2014-04-02 17:49:00,0.407101297313,0,0.5,0.0,0.0,0.0,0
2014-04-02 17:54:00,0.409876847797,0,0.5,0.0,0.0,0.0,0
2014-04-02 17:59:00,0.396245810975,0,0.5,0.0,0.0,0.0,0
2014-04-02 18:04:00,0.417956783651,0,0.5,0.0,0.0,0.0,0
2014-04-02 18:09:00,0.385390324637,0,0.5,0.0,0.0,0.0,0
2014-04-02 18:14:00,0.39116758157,0,0.5,0.0,0.0,0.0,0
2014-04-02 18:19:00,0.441333086618,0,0.5,0.0,0.0,0.0,0
2014-04-02 18:24:00,0.367236168507,0,0.5,0.0,0.0,0.0,0
2014-04-02 18:29:00,0.411932811119,0,0.5,0.0,0.0,0.0,0
2014-04-02 18:34:00,0.374370361233,0,0.5,0.0,0.0,0.0,0
2014-04-02 18:39:00,0.393737535722,0,0.5,0.0,0.0,0.0,0
2014-04-02 18:44:00,0.389975122844,0,0.5,0.0,0.0,0.0,0
2014-04-02 18:49:00,0.404449104628,0,0.5,0.0,0.0,0.0,0
2014-04-02 18:54:00,0.409753489998,0,0.5,0.0,0.0,0.0,0
2014-04-02 18:59:00,0.428544994757,0,0.5,0.0,0.0,0.0,0
2014-04-02 19:04:00,0.388268673287,0,0.5,0.0,0.0,0.0,0
2014-04-02 19:09:00,0.395032792615,0,0.5,0.0,0.0,0.0,0
2014-04-02 19:14:00,0.401221242213,0,0.5,0.0,0.0,0.0,0
2014-04-02 19:19:00,0.392133884332,0,0.5,0.0,0.0,0.0,0
2014-04-02 19:24:00,0.411398260655,0,0.5,0.0,0.0,0.0,0
2014-04-02 19:29:00,0.373260141039,0,0.5,0.0,0.0,0.0,0
2014-04-02 19:34:00,0.438701453566,0,0.5,0.0,0.0,0.0,0
2014-04-02 19:39:00,0.387117333827,0,0.5,0.0,0.0,0.0,0
2014-04-02 19:44:00,0.396245810975,0,0.5,0.0,0.0,0.0,0
2014-04-02 19:49:00,0.423980756183,0,0.5,0.0,0.0,0.0,0
2014-04-02 19:54:00,0.392133884332,0,0.5,0.0,0.0,0.0,0
2014-04-02 19:59:00,0.421821994696,0,0.5,0.0,0.0,0.0,0
2014-04-02 20:04:00,0.412652398281,0,0.5,0.0,0.0,0.0,0
2014-04-02 20:09:00,0.451263389461,0,0.5,0.0,0.0,0.0,0
2014-04-02 20:14:00,0.389008820083,0,0.5,0.0,0.0,0.0,0
2014-04-02 20:19:00,0.452455848188,0,0.5,0.0,0.0,0.0,0
2014-04-02 20:24:00,0.373609654804,0,0.5,0.0,0.0,0.0,0
2014-04-02 20:29:00,0.405168691791,0,0.5,0.0,0.0,0.0,0
2014-04-02 20:34:00,0.429593536051,0,0.5,0.0,0.0,0.0,0
2014-04-02 20:39:00,0.402002508275,0,0.5,0.0,0.0,0.0,0
2014-04-02 20:44:00,0.377701021814,0,0.5,0.0,0.0,0.0,0
2014-04-02 20:49:00,0.390818067806,0,0.5,0.0,0.0,0.0,0
2014-04-02 20:54:00,0.42280885709,0,0.5,0.0,0.0,0.0,0
2014-04-02 20:59:00,0.404449104628,0,0.5,0.0,0.0,0.0,0
2014-04-02 21:04:00,0.39359361829,0,0.5,0.0,0.0,0.0,0
2014-04-02 21:09:00,0.450769958264,0,0.5,0.0,0.0,0.0,0
2014-04-02 21:14:00,0.375480581426,0,0.5,0.0,0.0,0.0,0
2014-04-02 21:19:00,0.40298937067,0,0.5,0.0,0.0,0.0,0
2014-04-02 21:24:00,0.37959250807,0,0.5,0.0,0.0,0.0,0
2014-04-02 21:29:00,0.394210407286,0,0.5,0.0,0.0,0.0,0
2014-04-02 21:34:00,0.408519912005,0,0.5,0.0,0.0,0.0,0
2014-04-02 21:39:00,0.436789407677,0,0.5,0.0,0.0,0.0,0
2014-04-02 21:44:00,0.401796911943,0,0.5,0.0,0.0,0.0,0
2014-04-02 21:49:00,0.407348012911,0,0.5,0.0,0.0,0.0,0
2014-04-02 21:54:00,0.408252636773,0,0.5,0.0,0.0,0.0,0
2014-04-02 21:59:00,0.419169802011,0,0.5,0.0,0.0,0.0,0
2014-04-02 22:04:00,0.368079113469,0,0.5,0.0,0.0,0.0,0
2014-04-02 22:09:00,0.408540471638,0,0.5,0.0,0.0,0.0,0
2014-04-02 22:14:00,0.428586114024,0,0.5,0.0,0.0,0.0,0
2014-04-02 22:19:00,0.399555911923,0,0.5,0.0,0.0,0.0,0
2014-04-02 22:24:00,0.409260058801,0,0.5,0.0,0.0,0.0,0
2014-04-02 22:29:00,0.3976849853,0,0.5,0.0,0.0,0.0,0
2014-04-02 22:34:00,0.402804333971,0,0.5,0.0,0.0,0.0,0
2014-04-02 22:39:00,0.399206398158,0,0.5,0.0,0.0,0.0,0
2014-04-02 22:44:00,0.371635930015,0,0.5,0.0,0.0,0.0,0
2014-04-02 22:49:00,0.3976849853,0,0.5,0.0,0.0,0.0,0
2014-04-02 22:54:00,0.434363370957,0,0.5,0.0,0.0,0.0,0
2014-04-02 22:59:00,0.405641563355,0,0.5,0.0,0.0,0.0,0
2014-04-02 23:04:00,0.406854581714,0,0.5,0.0,0.0,0.0,0
2014-04-02 23:09:00,0.411932811119,0,0.5,0.0,0.0,0.0,0
2014-04-02 23:14:00,0.438948169165,0,0.5,0.0,0.0,0.0,0
2014-04-02 23:19:00,0.377043113551,0,0.5,0.0,0.0,0.0,0
2014-04-02 23:24:00,0.396143012809,0,0.5,0.0,0.0,0.0,0
2014-04-02 23:29:00,0.391784370567,0,0.5,0.0,0.0,0.0,0
2014-04-02 23:34:00,0.429387939719,0,0.5,0.0,0.0,0.0,0
2014-04-02 23:39:00,0.414811159769,0,0.5,0.0,0.0,0.0,0
2014-04-02 23:44:00,0.399370875224,0,0.5,0.0,0.0,0.0,0
2014-04-02 23:49:00,0.387466847591,0,0.5,0.0,0.0,0.0,0
2014-04-02 23:54:00,0.444293673801,0,0.5,0.0,0.0,0.0,0
2014-04-02 23:59:00,0.380805526429,0,0.5,0.0,0.0,0.0,0
2014-04-03 00:04:00,0.410123563396,0,0.5,0.0,0.0,0.0,0
2014-04-03 00:09:00,0.456608894097,0,0.5,0.0,0.0,0.0,0
2014-04-03 00:14:00,0.387795801723,0,0.5,0.0,0.0,0.0,0
2014-04-03 00:19:00,0.391784370567,0,0.5,0.0,0.0,0.0,0
2014-04-03 00:24:00,0.405641563355,0,0.5,0.0,0.0,0.0,0
2014-04-03 00:29:00,0.392853471494,0,0.5,0.0,0.0,0.0,0
2014-04-03 00:34:00,0.377145911717,0,0.5,0.0,0.0,0.0,0
2014-04-03 00:39:00,0.437262279241,0,0.5,0.0,0.0,0.0,0
2014-04-03 00:44:00,0.374534838298,0,0.5,0.0,0.0,0.0,0
2014-04-03 00:49:00,0.403236086268,0,0.5,0.0,0.0,0.0,0
2014-04-03 00:54:00,0.422541581858,0,0.5,0.0,0.0,0.0,0
2014-04-03 00:59:00,0.408787187237,0,0.5,0.0,0.0,0.0,0
2014-04-03 01:04:00,0.409506774399,0,0.5,0.0,0.0,0.0,0
2014-04-03 01:09:00,0.43035424248,0,0.5,0.0,0.0,0.0,0
2014-04-03 01:14:00,0.387631324657,0,0.5,0.0,0.0,0.0,0
2014-04-03 01:19:00,0.399144719258,0,0.5,0.0,0.0,0.0,0
2014-04-03 01:24:00,0.435329673719,0,0.5,0.0,0.0,0.0,0
2014-04-03 01:29:00,0.418450214848,0,0.5,0.0,0.0,0.0,0
2014-04-03 01:34:00,0.413618701042,0,0.5,0.0,0.0,0.0,0
2014-04-03 01:39:00,0.444622627932,0,0.5,0.0,0.0,0.0,0
2014-04-03 01:44:00,0.377659902547,0,0.5,0.0,0.0,0.0,0
2014-04-03 01:49:00,0.402023067908,0,0.5,0.0,0.0,0.0,0
2014-04-03 01:54:00,0.428668352557,0,0.5,0.0,0.0,0.0,0
2014-04-03 01:59:00,0.394066489854,0,0.5,0.0,0.0,0.0,0
2014-04-03 02:04:00,0.407101297313,0,0.5,0.0,0.0,0.0,0
2014-04-03 02:09:00,0.423980756183,0,0.5,0.0,0.0,0.0,0
2014-04-03 02:14:00,0.398404572462,0,0.5,0.0,0.0,0.0,0
2014-04-03 02:19:00,0.400193260552,0,0.5,0.0,0.0,0.0,0
2014-04-03 02:24:00,0.40638171015,0,0.5,0.0,0.0,0.0,0
2014-04-03 02:29:00,0.386911737495,0,0.5,0.0,0.0,0.0,0
2014-04-03 02:34:00,0.410226361562,0,0.5,0.0,0.0,0.0,0
2014-04-03 02:39:00,0.374123645634,0,0.5,0.0,0.0,0.0,0
2014-04-03 02:44:00,0.408067600074,0,0.5,0.0,0.0,0.0,0
2014-04-03 02:49:00,0.400481095417,0,0.5,0.0,0.0,0.0,0
2014-04-03 02:54:00,0.41820349925,0,0.5,0.0,0.0,0.0,0
2014-04-03 02:59:00,0.391414297169,0,0.5,0.0,0.0,0.0,0
2014-04-03 03:04:00,0.426859104834,0,0.5,0.0,0.0,0.0,0
2014-04-03 03:09:00,0.397438269701,0,0.5,0.0,0.0,0.0,0
2014-04-03 03:14:00,0.394786077016,0,0.5,0.0,0.0,0.0,0
2014-04-03 03:19:00,0.452455848188,0,0.5,0.0,0.0,0.0,0
2014-04-03 03:24:00,0.403955673431,0,0.5,0.0,0.0,0.0,0
2014-04-03 03:29:00,0.42223318736,0,0.5,0.0,0.0,0.0,0
2014-04-03 03:34:00,0.427126380065,0,0.5,0.0,0.0,0.0,0
2014-04-03 03:39:00,0.431156068176,0,0.5,0.0,0.0,0.0,0
2014-04-03 03:44:00,0.367873517136,0,0.5,0.0,0.0,0.0,0
2014-04-03 03:49:00,0.396369168774,0,0.5,0.0,0.0,0.0,0
2014-04-03 03:54:00,0.426221756204,0,0.5,0.0,0.0,0.0,0
2014-04-03 03:59:00,0.381525113592,0,0.5,0.0,0.0,0.0,0
2014-04-03 04:04:00,0.423261169021,0,0.5,0.0,0.0,0.0,0
2014-04-03 04:09:00,0.432924196632,0,0.5,0.0,0.0,0.0,0
2014-04-03 04:14:00,0.374760994264,0,0.5,0.0,0.0,0.0,0
2014-04-03 04:19:00,0.391393737536,0,0.5,0.0,0.0,0.0,0
2014-04-03 04:24:00,0.421821994696,0,0.5,0.0,0.0,0.0,0
2014-04-03 04:29:00,0.380394333765,0,0.5,0.0,0.0,0.0,0
2014-04-03 04:34:00,0.379345792471,0,0.5,0.0,0.0,0.0,0
2014-04-03 04:39:00,0.411542178088,0,0.5,0.0,0.0,0.0,0
2014-04-03 04:44:00,0.373794691503,0,0.5,0.0,0.0,0.0,0
2014-04-03 04:49:00,0.398013939431,0,0.5,0.0,0.0,0.0,0
2014-04-03 04:54:00,0.415325150599,0,0.5,0.0,0.0,0.0,0
2014-04-03 04:59:00,0.395443985279,0,0.5,0.0,0.0,0.0,0
2014-04-03 05:04:00,0.411953370752,0,0.5,0.0,0.0,0.0,0
2014-04-03 05:09:00,0.461625444602,0,0.5,0.0,0.0,0.0,0
2014-04-03 05:14:00,0.373630214437,0,0.5,0.0,0.0,0.0,0
2014-04-03 05:19:00,0.438434178334,0,0.5,0.0,0.0,0.0,0
2014-04-03 05:24:00,0.441764838915,0,0.5,0.0,0.0,0.0,0
2014-04-03 05:29:00,0.415304590966,0,0.5,0.0,0.0,0.0,0
2014-04-03 05:34:00,0.43456896729,0,0.5,0.0,0.0,0.0,0
2014-04-03 05:39:00,0.45196241699,0,0.5,0.0,0.0,0.0,0
2014-04-03 05:44:00,0.396430847674,0,0.5,0.0,0.0,0.0,0
2014-04-03 05:49:00,0.389584489813,0,0.5,0.0,0.0,0.0,0
2014-04-03 05:54:00,0.450276527067,0,0.5,0.0,0.0,0.0,0
2014-04-03 05:59:00,0.379099076872,0,0.5,0.0,0.0,0.0,0
2014-04-03 06:04:00,0.429531857152,0,0.5,0.0,0.0,0.0,0
2014-04-03 06:09:00,0.41289911388,0,0.5,0.0,0.0,0.0,0
2014-04-03 06:14:00,0.414338288205,0,0.5,0.0,0.0,0.0,0
2014-04-03 06:19:00,0.426406792903,0,0.5,0.0,0.0,0.0,0
2014-04-03 06:24:00,0.393819774255,0,0.5,0.0,0.0,0.0,0
2014-04-03 06:29:00,0.424186352515,0,0.5,0.0,0.0,0.0,0
2014-04-03 06:34:00,0.475873270421,0,0.5,0.0,0.0,0.0,0
2014-04-03 06:39:00,0.399124159625,0,0.5,0.0,0.0,0.0,0
2014-04-03 06:44:00,0.402023067908,0,0.5,0.0,0.0,0.0,0
2014-04-03 06:49:00,0.409116141368,0,0.5,0.0,0.0,0.0,0
2014-04-03 06:54:00,0.443430169206,0,0.5,0.0,0.0,0.0,0
2014-04-03 06:59:00,0.3976849853,0,0.5,0.0,0.0,0.0,0
2014-04-03 07:04:00,0.430086967249,0,0.5,0.0,0.0,0.0,0
2014-04-03 07:09:00,0.406134994552,0,0.5,0.0,0.0,0.0,0
2014-04-03 07:14:00,0.409753489998,0,0.5,0.0,0.0,0.0,0
2014-04-03 07:19:00,0.41699048089,0,0.5,0.0,0.0,0.0,0
2014-04-03 07:24:00,0.433643783795,0,0.5,0.0,0.0,0.0,0
2014-04-03 07:29:00,0.420855691934,0,0.5,0.0,0.0,0.0,0
2014-04-03 07:34:00,0.365838113448,0,0.5,0.0,0.0,0.0,0
2014-04-03 07:39:00,0.399617590822,0,0.5,0.0,0.0,0.0,0
2014-04-03 07:44:00,0.392051645799,0,0.5,0.0,0.0,0.0,0
2014-04-03 07:49:00,0.392133884332,0,0.5,0.0,0.0,0.0,0
2014-04-03 07:54:00,0.408273196406,0,0.5,0.0,0.0,0.0,0
2014-04-03 07:59:00,0.390447994408,0,0.5,0.0,0.0,0.0,0
2014-04-03 08:04:00,0.439194884763,0,0.5,0.0,0.0,0.0,0
2014-04-03 08:09:00,0.428339398425,0,0.5,0.0,0.0,0.0,0
2014-04-03 08:14:00,0.402763214704,0,0.5,0.0,0.0,0.0,0
2014-04-03 08:19:00,0.378132774111,0,0.5,0.0,0.0,0.0,0
2014-04-03 08:24:00,0.406854581714,0,0.5,0.0,0.0,0.0,0
2014-04-03 08:29:00,0.389605049446,0,0.5,0.0,0.0,0.0,0
2014-04-03 08:34:00,0.408293756039,0,0.5,0.0,0.0,0.0,0
2014-04-03 08:39:00,0.373424618105,0,0.5,0.0,0.0,0.0,0
2014-04-03 08:44:00,0.406834022081,0,0.5,0.0,0.0,0.0,0
2014-04-03 08:49:00,0.420608976336,0,0.5,0.0,0.0,0.0,0
2014-04-03 08:54:00,0.396965398137,0,0.5,0.0,0.0,0.0,0
2014-04-03 08:59:00,0.392853471494,0,0.5,0.0,0.0,0.0,0
2014-04-03 09:04:00,0.405168691791,0,0.5,0.0,0.0,0.0,0
2014-04-03 09:09:00,0.452558646354,0,0.5,0.0,0.0,0.0,0
2014-04-03 09:14:00,0.365591397849,0,0.5,0.0,0.0,0.0,0
2014-04-03 09:19:00,0.395279508214,0,0.5,0.0,0.0,0.0,0
2014-04-03 09:24:00,0.394313205452,0,0.5,0.0,0.0,0.0,0
2014-04-03 09:29:00,0.405024774358,0,0.5,0.0,0.0,0.0,0
2014-04-03 09:34:00,0.400830609182,0,0.5,0.0,0.0,0.0,0
2014-04-03 09:39:00,0.435247435186,0,0.5,0.0,0.0,0.0,0
2014-04-03 09:44:00,0.375480581426,0,0.5,0.0,0.0,0.0,0
2014-04-03 09:49:00,0.391722691667,0,0.5,0.0,0.0,0.0,0
2014-04-03 09:54:00,0.438948169165,0,0.5,0.0,0.0,0.0,0
2014-04-03 09:59:00,0.368551985033,0,0.5,0.0,0.0,0.0,0
2014-04-03 10:04:00,0.407574168877,0,0.5,0.0,0.0,0.0,0
2014-04-03 10:09:00,0.411439379921,0,0.5,0.0,0.0,0.0,0
2014-04-03 10:14:00,0.371389214416,0,0.5,0.0,0.0,0.0,0
2014-04-03 10:19:00,0.390920865972,0,0.5,0.0,0.0,0.0,0
2014-04-03 10:24:00,0.403832315631,0,0.5,0.0,0.0,0.0,0
2014-04-03 10:29:00,0.419642673575,0,0.5,0.0,0.0,0.0,0
2014-04-03 10:34:00,0.403236086268,0,0.5,0.0,0.0,0.0,0
2014-04-03 10:39:00,0.4444787105,0,0.5,0.0,0.0,0.0,0
2014-04-03 10:44:00,0.374041407101,0,0.5,0.0,0.0,0.0,0
2014-04-03 10:49:00,0.371389214416,0,0.5,0.0,0.0,0.0,0
2014-04-03 10:54:00,0.407101297313,0,0.5,0.0,0.0,0.0,0
2014-04-03 10:59:00,0.417668948786,0,0.5,0.0,0.0,0.0,0
2014-04-03 11:04:00,0.390406875141,0,0.5,0.0,0.0,0.0,0
2014-04-03 11:09:00,0.440161187524,0,0.5,0.0,0.0,0.0,0
2014-04-03 11:14:00,0.373794691503,0,0.5,0.0,0.0,0.0,0
2014-04-03 11:19:00,0.405888278953,0,0.5,0.0,0.0,0.0,0
2014-04-03 11:24:00,0.362692489566,0,0.5,0.0,0.0,0.0,0
2014-04-03 11:29:00,0.388762104484,0,0.5,0.0,0.0,0.0,0
2014-04-03 11:34:00,0.426776866301,0,0.5,0.0,0.0,0.0,0
2014-04-03 11:39:00,0.418511893748,0,0.5,0.0,0.0,0.0,0
2014-04-03 11:44:00,0.375562819959,0,0.5,0.0,0.0,0.0,0
2014-04-03 11:49:00,0.41820349925,0,0.5,0.0,0.0,0.0,0
2014-04-03 11:54:00,0.414811159769,0,0.5,0.0,0.0,0.0,0
2014-04-03 11:59:00,0.390694710006,0,0.5,0.0,0.0,0.0,0
2014-04-03 12:04:00,0.418676370814,0,0.5,0.0,0.0,0.0,0
2014-04-03 12:09:00,0.40298937067,0,0.5,0.0,0.0,0.0,0
2014-04-03 12:14:00,0.37307510434,0,0.5,0.0,0.0,0.0,0
2014-04-03 12:19:00,0.388124755854,0,0.5,0.0,0.0,0.0,0
2014-04-03 12:24:00,0.391661012768,0,0.5,0.0,0.0,0.0,0
2014-04-03 12:29:00,0.402516499106,0,0.5,0.0,0.0,0.0,0
2014-04-03 12:34:00,0.376693599786,0,0.5,0.0,0.0,0.0,0
2014-04-03 12:39:00,0.406607866116,0,0.5,0.0,0.0,0.0,0
2014-04-03 12:44:00,0.370422911655,0,0.5,0.0,0.0,0.0,0
2014-04-03 12:49:00,0.417175517589,0,0.5,0.0,0.0,0.0,0
2014-04-03 12:54:00,0.385390324637,0,0.5,0.0,0.0,0.0,0
2014-04-03 12:59:00,0.419025884578,0,0.5,0.0,0.0,0.0,0
2014-04-03 13:04:00,0.410000205596,0,0.5,0.0,0.0,0.0,0
2014-04-03 13:09:00,0.400830609182,0,0.5,0.0,0.0,0.0,0
2014-04-03 13:14:00,0.380805526429,0,0.5,0.0,0.0,0.0,0
2014-04-03 13:19:00,0.39647196694,0,0.5,0.0,0.0,0.0,0
2014-04-03 13:24:00,0.39238059993,0,0.5,0.0,0.0,0.0,0
2014-04-03 13:29:00,0.406361150517,0,0.5,0.0,0.0,0.0,0
2014-04-03 13:34:00,0.445465572894,0,0.5,0.0,0.0,0.0,0
2014-04-03 13:39:00,0.381997985156,0,0.5,0.0,0.0,0.0,0
2014-04-03 13:44:00,0.410288040461,0,0.5,0.0,0.0,0.0,0
2014-04-03 13:49:00,0.39238059993,0,0.5,0.0,0.0,0.0,0
2014-04-03 13:54:00,0.399370875224,0,0.5,0.0,0.0,0.0,0
2014-04-03 13:59:00,0.39238059993,0,0.5,0.0,0.0,0.0,0
2014-04-03 14:04:00,0.415057875368,0,0.5,0.0,0.0,0.0,0
2014-04-03 14:09:00,0.389008820083,0,0.5,0.0,0.0,0.0,0
2014-04-03 14:14:00,0.391661012768,0,0.5,0.0,0.0,0.0,0
2014-04-03 14:19:00,0.393100187093,0,0.5,0.0,0.0,0.0,0
2014-04-03 14:24:00,0.408067600074,0,0.5,0.0,0.0,0.0,0
2014-04-03 14:29:00,0.378297251177,0,0.5,0.0,0.0,0.0,0
2014-04-03 14:34:00,0.428812269989,0,0.5,0.0,0.0,0.0,0
2014-04-03 14:39:00,0.370381792389,0,0.5,0.0,0.0,0.0,0
2014-04-03 14:44:00,0.406032196386,0,0.5,0.0,0.0,0.0,0
2014-04-03 14:49:00,0.391887168733,0,0.5,0.0,0.0,0.0,0
2014-04-03 14:54:00,0.424227471782,0,0.5,0.0,0.0,0.0,0
2014-04-03 14:59:00,0.378872920907,0,0.5,0.0,0.0,0.0,0
2014-04-03 15:04:00,0.412138407451,0,0.5,0.0,0.0,0.0,0
2014-04-03 15:09:00,0.394313205452,0,0.5,0.0,0.0,0.0,0
2014-04-03 15:14:00,0.420855691934,0,0.5,0.0,0.0,0.0,0
2014-04-03 15:19:00,0.420136104772,0,0.5,0.0,0.0,0.0,0
2014-04-03 15:24:00,0.406628425749,0,0.5,0.0,0.0,0.0,0
2014-04-03 15:29:00,0.379839223668,0,0.5,0.0,0.0,0.0,0
2014-04-03 15:34:00,0.41398877444,0,0.5,0.0,0.0,0.0,0
2014-04-03 15:39:00,0.408437673472,0,0.5,0.0,0.0,0.0,0
2014-04-03 15:44:00,0.375480581426,0,0.5,0.0,0.0,0.0,0
2014-04-03 15:49:00,0.394313205452,0,0.5,0.0,0.0,0.0,0
2014-04-03 15:54:00,0.409753489998,0,0.5,0.0,0.0,0.0,0
2014-04-03 15:59:00,0.391948847633,0,0.5,0.0,0.0,0.0,0
2014-04-03 16:04:00,0.415119554267,0,0.5,0.0,0.0,0.0,0
2014-04-03 16:09:00,0.45560147207,0,0.5,0.0,0.0,0.0,0
2014-04-03 16:14:00,0.352803305989,0,0.5,0.0,0.0,0.0,0
2014-04-03 16:19:00,0.395485104546,0,0.5,0.0,0.0,0.0,0
2014-04-03 16:24:00,0.404695820227,0,0.5,0.0,0.0,0.0,0
2014-04-03 16:29:00,0.423610682785,0,0.5,0.0,0.0,0.0,0
2014-04-03 16:34:00,0.376405764921,0,0.5,0.0,0.0,0.0,0
2014-04-03 16:39:00,0.402125866075,0,0.5,0.0,0.0,0.0,0
2014-04-03 16:44:00,0.380127058533,0,0.5,0.0,0.0,0.0,0
2014-04-03 16:49:00,0.406607866116,0,0.5,0.0,0.0,0.0,0
2014-04-03 16:54:00,0.393429141224,0,0.5,0.0,0.0,0.0,0
2014-04-03 16:59:00,0.41047307716,0,0.5,0.0,0.0,0.0,0
2014-04-03 17:04:00,0.386274388865,0,0.5,0.0,0.0,0.0,0
2014-04-03 17:09:00,0.430827114044,0,0.5,0.0,0.0,0.0,0
2014-04-03 17:14:00,0.404407985362,0,0.5,0.0,0.0,0.0,0
2014-04-03 17:19:00,0.378009416312,0,0.5,0.0,0.0,0.0,0
2014-04-03 17:24:00,0.390447994408,0,0.5,0.0,0.0,0.0,0
2014-04-03 17:29:00,0.410966508357,0,0.5,0.0,0.0,0.0,0
2014-04-03 17:34:00,0.390509673307,0,0.5,0.0,0.0,0.0,0
2014-04-03 17:39:00,0.441559242583,0,0.5,0.0,0.0,0.0,0
2014-04-03 17:44:00,0.366084829047,0,0.5,0.0,0.0,0.0,0
2014-04-03 17:49:00,0.394066489854,0,0.5,0.0,0.0,0.0,0
2014-04-03 17:54:00,0.422891095623,0,0.5,0.0,0.0,0.0,0
2014-04-03 17:59:00,0.381483994326,0,0.5,0.0,0.0,0.0,0
2014-04-03 18:04:00,0.39295626966,0,0.5,0.0,0.0,0.0,0
2014-04-03 18:09:00,0.426653508501,0,0.5,0.0,0.0,0.0,0
2014-04-03 18:14:00,0.398178416497,0,0.5,0.0,0.0,0.0,0
2014-04-03 18:19:00,0.418244618516,0,0.5,0.0,0.0,0.0,0
2014-04-03 18:24:00,0.408787187237,0,0.5,0.0,0.0,0.0,0
2014-04-03 18:29:00,0.432739159933,0,0.5,0.0,0.0,0.0,0
2014-04-03 18:34:00,0.390201278809,0,0.5,0.0,0.0,0.0,0
2014-04-03 18:39:00,0.396245810975,0,0.5,0.0,0.0,0.0,0
2014-04-03 18:44:00,0.370895783219,0,0.5,0.0,0.0,0.0,0
2014-04-03 18:49:00,0.390365755875,0,0.5,0.0,0.0,0.0,0
2014-04-03 18:54:00,0.409403976233,0,0.5,0.0,0.0,0.0,0
2014-04-03 18:59:00,0.391784370567,0,0.5,0.0,0.0,0.0,0
2014-04-03 19:04:00,0.39883632476,0,0.5,0.0,0.0,0.0,0
2014-04-03 19:09:00,0.428586114024,0,0.5,0.0,0.0,0.0,0
2014-04-03 19:14:00,0.413865416641,0,0.5,0.0,0.0,0.0,0
2014-04-03 19:19:00,0.352248195892,0,0.5,0.0,0.0,0.0,0
2014-04-03 19:24:00,0.442093793047,0,0.5,0.0,0.0,0.0,0
2014-04-03 19:29:00,0.371142498818,0,0.5,0.0,0.0,0.0,0
2014-04-03 19:34:00,0.427619811263,0,0.5,0.0,0.0,0.0,0
2014-04-03 19:39:00,0.401817471576,0,0.5,0.0,0.0,0.0,0
2014-04-03 19:44:00,0.39877464586,0,0.5,0.0,0.0,0.0,0
2014-04-03 19:49:00,0.42229486626,0,0.5,0.0,0.0,0.0,0
2014-04-03 19:54:00,0.414811159769,0,0.5,0.0,0.0,0.0,0
2014-04-03 19:59:00,0.41577746253,0,0.5,0.0,0.0,0.0,0
2014-04-03 20:04:00,0.3976849853,0,0.5,0.0,0.0,0.0,0
2014-04-03 20:09:00,0.394559921051,0,0.5,0.0,0.0,0.0,0
2014-04-03 20:14:00,0.408602150538,0,0.5,0.0,0.0,0.0,0
2014-04-03 20:19:00,0.404449104628,0,0.5,0.0,0.0,0.0,0
2014-04-03 20:24:00,0.418676370814,0,0.5,0.0,0.0,0.0,0
2014-04-03 20:29:00,0.403729517465,0,0.5,0.0,0.0,0.0,0
2014-04-03 20:34:00,0.374904911696,0,0.5,0.0,0.0,0.0,0
2014-04-03 20:39:00,0.394251526553,0,0.5,0.0,0.0,0.0,0
2014-04-03 20:44:00,0.391434856802,0,0.5,0.0,0.0,0.0,0
2014-04-03 20:49:00,0.421636957997,0,0.5,0.0,0.0,0.0,0
2014-04-03 20:54:00,0.406628425749,0,0.5,0.0,0.0,0.0,0
2014-04-03 20:59:00,0.420156664405,0,0.5,0.0,0.0,0.0,0
2014-04-03 21:04:00,0.36016365468,0,0.5,0.0,0.0,0.0,0
2014-04-03 21:09:00,0.41111042579,0,0.5,0.0,0.0,0.0,0
2014-04-03 21:14:00,0.39244227883,0,0.5,0.0,0.0,0.0,0
2014-04-03 21:19:00,0.410719792759,0,0.5,0.0,0.0,0.0,0
2014-04-03 21:24:00,0.408519912005,0,0.5,0.0,0.0,0.0,0
2014-04-03 21:29:00,0.41002076523,0,0.5,0.0,0.0,0.0,0
2014-04-03 21:34:00,0.407820884475,0,0.5,0.0,0.0,0.0,0
2014-04-03 21:39:00,0.387302370526,0,0.5,0.0,0.0,0.0,0
2014-04-03 21:44:00,0.383211003516,0,0.5,0.0,0.0,0.0,0
2014-04-03 21:49:00,0.392421719197,0,0.5,0.0,0.0,0.0,0
2014-04-03 21:54:00,0.411439379921,0,0.5,0.0,0.0,0.0,0
2014-04-03 21:59:00,0.378461728243,0,0.5,0.0,0.0,0.0,0
2014-04-03 22:04:00,0.297271736672,0,0.5,0.0,0.0,0.0,0
2014-04-03 22:09:00,0.332922140669,0,0.5,0.0,0.0,0.0,0
2014-04-03 22:14:00,0.330290507617,0,0.5,0.0,0.0,0.0,0
2014-04-03 22:19:00,0.368243590534,0,0.5,0.0,0.0,0.0,0
2014-04-03 22:24:00,0.311786837723,0,0.5,0.0,0.0,0.0,0
2014-04-03 22:29:00,0.297539011904,0,0.5,0.0,0.0,0.0,0
2014-04-03 22:34:00,0.316494993729,0,0.5,0.0,0.0,0.0,0
2014-04-03 22:39:00,0.317646333189,0,0.5,0.0,0.0,0.0,0
2014-04-03 22:44:00,0.316659470795,0,0.5,0.0,0.0,0.0,0
2014-04-03 22:49:00,0.326507535106,0,0.999994509889,0.0,0.0,0.0,1
2014-04-03 22:54:00,0.351590287629,0,0.999977799673,0.0,0.0,0.0,0
2014-04-03 22:59:00,0.350562305968,0,0.999965752428,0.0,0.0,0.0,0
2014-04-03 23:04:00,0.289582433849,0,0.999987592948,0.0,0.0,0.0,0
2014-04-03 23:09:00,0.341947819651,0,0.999993739244,0.0,0.0,0.0,1
2014-04-03 23:14:00,0.334731388392,0,0.999988614667,0.0,0.0,0.0,0
2014-04-03 23:19:00,0.347745636218,0,0.9999602598,0.0,0.0,0.0,0
2014-04-03 23:24:00,0.284072452147,0,0.999982109129,0.0,0.0,0.0,0
2014-04-03 23:29:00,0.31746129649,0,0.999982192139,0.0,0.0,0.0,0
2014-04-03 23:34:00,0.317337938691,0,0.999981885967,0.0,0.0,0.0,0
2014-04-03 23:39:00,0.32288903966,0,0.999983462999,0.0,0.0,0.0,0
2014-04-03 23:44:00,0.365118526285,0,0.999976803411,0.0,0.0,0.0,0
2014-04-03 23:49:00,0.268837763934,0,0.996960305862,0.0,0.0,0.0,0
2014-04-03 23:54:00,0.346779333457,0,0.994173645975,0.0,0.0,0.0,0
2014-04-03 23:59:00,0.306667489052,0,0.996078963343,0.0,0.0,0.0,0
2014-04-04 00:04:00,0.347478360986,0,0.995466894167,0.0,0.0,0.0,0
2014-04-04 00:09:00,0.331811920475,0,0.996219917819,0.0,0.0,0.0,0
2014-04-04 00:14:00,0.33976849853,0,0.992973917067,0.0,0.0,0.0,0
2014-04-04 00:19:00,0.297559571537,0,0.994342493535,0.0,0.0,0.0,0
2014-04-04 00:24:00,0.343386993976,0,0.992495817359,0.0,0.0,0.0,0
2014-04-04 00:29:00,0.312753140484,0,0.993269550823,0.0,0.0,0.0,0
2014-04-04 00:34:00,0.318530397418,0,0.995991204952,0.0,0.0,0.0,0
2014-04-04 00:39:00,0.31515861757,0,0.993288962504,0.0,0.0,0.0,0
2014-04-04 00:44:00,0.317564094657,0,0.995134456544,0.0,0.0,0.0,0
2014-04-04 00:49:00,0.33446411316,0,0.993391167747,0.0,0.0,0.0,0
2014-04-04 00:54:00,0.312753140484,0,0.995499414346,0.0,0.0,0.0,0
2014-04-04 00:59:00,0.316556672629,0,0.996218128368,0.0,0.0,0.0,0
2014-04-04 01:04:00,0.333127737001,0,0.996497474118,0.0,0.0,0.0,0
2014-04-04 01:09:00,0.360533728078,0,0.992922504009,0.0,0.0,0.0,0
2014-04-04 01:14:00,0.309114085405,0,0.995141178381,0.0,0.0,0.0,0
2014-04-04 01:19:00,0.316124920331,0,0.994954439242,0.0,0.0,0.0,0
2014-04-04 01:24:00,0.363597113427,0,0.991770557694,0.0,0.0,0.0,0
2014-04-04 01:29:00,0.234318139764,0,0.996644973673,0.0,0.0,0.0,0
2014-04-04 01:34:00,0.0024260367195,0,0.999957247986,0.0,0.0,0.0,0
2014-04-04 01:39:00,0.00145973395835,0,0.999999908079,0.0,0.0,0.0,1
2014-04-04 01:44:00,0.00314562388207,0,0.999,0.0,0.0,0.0,0
2014-04-04 01:49:00,0.00137749542548,0,0.999,0.0,0.0,0.0,0
2014-04-04 01:54:00,0.019408293756,0,0.999,0.0,0.0,0.0,0
2014-04-04 01:59:00,0.00314562388207,0,0.999,0.0,0.0,0.0,0
2014-04-04 02:04:00,0.00265219268488,0,0.999,0.0,0.0,0.0,0
2014-04-04 02:09:00,0.0171467341023,0,0.999,0.0,0.0,0.0,0
2014-04-04 02:14:00,0.0024260367195,0,0.999,0.0,0.0,0.0,0
2014-04-04 02:19:00,0.00217932112091,0,0.999,0.0,0.0,0.0,0
2014-04-04 02:24:00,0.00339233948066,0,0.999,0.0,0.0,0.0,0
2014-04-04 02:29:00,0.00121301835975,0,0.999,0.0,0.0,0.0,0
2014-04-04 02:34:00,0.00217932112091,0,0.999,0.0,0.0,0.0,0
2014-04-04 02:39:00,0.000493431197187,0,0.999,0.0,0.0,0.0,0
2014-04-04 02:44:00,0.0026727523181,0,0.999,0.0,0.0,0.0,0
2014-04-04 02:49:00,0.00217932112091,0,0.999,0.0,0.0,0.0,0
2014-04-04 02:54:00,0.0200456423857,0,0.999,0.0,0.0,0.0,0
2014-04-04 02:59:00,0.00386521104463,0,0.999,0.0,0.0,0.0,0
2014-04-04 03:04:00,0.00460535784042,0,0.999,0.0,0.0,0.0,0
2014-04-04 03:09:00,0.0386109911799,0,0.999,0.0,0.0,0.0,0
2014-04-04 03:14:00,0.0026727523181,0,0.999,0.0,0.0,0.0,0
2014-04-04 03:19:00,0.00361849544604,0,0.999,0.0,0.0,0.0,0
2014-04-04 03:24:00,0.00145973395835,0,0.999,0.0,0.0,0.0,0
2014-04-04 03:29:00,0.0026727523181,0,0.999,0.0,0.0,0.0,0
2014-04-04 03:34:00,0.00145973395835,0,0.999,0.0,0.0,0.0,0
2014-04-04 03:39:00,0.0024260367195,0,0.999,0.0,0.0,0.0,0
2014-04-04 03:44:00,0.0026727523181,0,0.999,0.0,0.0,0.0,0
2014-04-04 03:49:00,0.00135693579227,0,0.999,0.0,0.0,0.0,0
2014-04-04 03:54:00,0.019408293756,0,0.999,0.0,0.0,0.0,0
2014-04-04 03:59:00,0.00314562388207,0,0.999,0.0,0.0,0.0,0
2014-04-04 04:04:00,0.00361849544604,0,0.999,0.0,0.0,0.0,0
2014-04-04 04:09:00,0.0161804313411,0,0.999,0.0,0.0,0.0,0
2014-04-04 04:14:00,0.00339233948066,0,0.999,0.0,0.0,0.0,0
2014-04-04 04:19:00,0.0026727523181,0,0.999,0.0,0.0,0.0,0
2014-04-04 04:24:00,0.00265219268488,0,0.999,0.0,0.0,0.0,0
2014-04-04 04:29:00,0.00312506424885,0,0.999,0.0,0.0,0.0,0
2014-04-04 04:34:00,0.00314562388207,0,0.999,0.0,0.0,0.0,0
2014-04-04 04:39:00,0.00145973395835,0,0.999,0.0,0.0,0.0,0
2014-04-04 04:44:00,0.00209708258805,0,0.999,0.0,0.0,0.0,0
2014-04-04 04:49:00,0.0020354036884,0,0.999,0.0,0.0,0.0,0
2014-04-04 04:54:00,0.0199017249532,0,0.999,0.0,0.0,0.0,0
2014-04-04 04:59:00,0.00300170644956,0,0.999,0.0,0.0,0.0,0
2014-04-04 05:04:00,0.00386521104463,0,0.999,0.0,0.0,0.0,0
2014-04-04 05:09:00,0.01930549559,0,0.999,0.0,0.0,0.0,0
2014-04-04 05:14:00,0.00289890828348,0,0.999,0.0,0.0,0.0,0
2014-04-04 05:19:00,0.00145973395835,0,0.999,0.0,0.0,0.0,0
2014-04-04 05:24:00,0.00170644955694,0,0.999,0.0,0.0,0.0,0
2014-04-04 05:29:00,0.00361849544604,0,0.999,0.0,0.0,0.0,0
2014-04-04 05:34:00,0.00185036698945,0,0.999,0.0,0.0,0.0,0
2014-04-04 05:39:00,0.00277555048418,0,0.999,0.0,0.0,0.0,0
2014-04-04 05:44:00,0.0024260367195,0,0.999,0.0,0.0,0.0,0
2014-04-04 05:49:00,0.0024260367195,0,0.999,0.0,0.0,0.0,0
2014-04-04 05:54:00,0.0200456423857,0,0.999,0.0,0.0,0.0,0
2014-04-04 05:59:00,0.00193260552232,0,0.999,0.0,0.0,0.0,0
2014-04-04 06:04:00,0.00435864224182,0,0.999,0.0,0.0,0.0,0
2014-04-04 06:09:00,0.0166533029051,0,0.999,0.0,0.0,0.0,0
2014-04-04 06:14:00,0.00289890828348,0,0.999,0.0,0.0,0.0,0
2014-04-04 06:19:00,0.00193260552232,0,0.999,0.0,0.0,0.0,0
2014-04-04 06:24:00,0.00170644955694,0,0.999,0.0,0.0,0.0,0
2014-04-04 06:29:00,0.00193260552232,0,0.999,0.0,0.0,0.0,0
2014-04-04 06:34:00,0.000966302761159,0,0.999,0.0,0.0,0.0,0
2014-04-04 06:39:00,0.0024260367195,0,0.999,0.0,0.0,0.0,0
2014-04-04 06:44:00,0.00339233948066,0,0.999,0.0,0.0,0.0,0
2014-04-04 06:49:00,0.0,0,0.999,0.0,0.0,0.0,0
2014-04-04 06:54:00,0.0177224038323,0,0.999,0.0,0.0,0.0,0
2014-04-04 06:59:00,0.00252883488559,0,0.999,0.0,0.0,0.0,0
2014-04-04 07:04:00,0.00337177984745,0,0.999,0.0,0.0,0.0,0
2014-04-04 07:09:00,0.0197783671539,0,0.999,0.0,0.0,0.0,0
2014-04-04 07:14:00,0.00314562388207,0,0.999,0.0,0.0,0.0,0
2014-04-04 07:19:00,0.00398856884393,0,0.999,0.0,0.0,0.0,0
2014-04-04 07:24:00,0.0024260367195,0,0.999,0.0,0.0,0.0,0
2014-04-04 07:29:00,0.00435864224182,0,0.999,0.0,0.0,0.0,0
2014-04-04 07:34:00,0.00289890828348,0,0.999,0.0,0.0,0.0,0
2014-04-04 07:39:00,0.00217932112091,0,0.999,0.0,0.0,0.0,0
2014-04-04 07:44:00,0.00386521104463,0,0.999,0.0,0.0,0.0,0
2014-04-04 07:49:00,0.00314562388207,0,0.999,0.0,0.0,0.0,0
2014-04-04 07:54:00,0.0205185139497,0,0.999,0.0,0.0,0.0,0
2014-04-04 07:59:00,0.00507822940439,0,0.999,0.0,0.0,0.0,0
2014-04-04 08:04:00,0.00532494500298,0,0.999,0.0,0.0,0.0,0
2014-04-04 08:09:00,0.0190793396246,0,0.911294741198,0.0,0.0,0.0,0
2014-04-04 08:14:00,0.00680523859454,0,0.91089835077,0.0,0.0,0.0,0
2014-04-04 08:19:00,0.0026727523181,0,0.911051107558,0.0,0.0,0.0,0
2014-04-04 08:24:00,0.00339233948066,0,0.911006418448,0.0,0.0,0.0,0
2014-04-04 08:29:00,0.00145973395835,0,0.911071584483,0.0,0.0,0.0,0
2014-04-04 08:34:00,0.000884064228294,0,0.911341179642,0.0,0.0,0.0,0
2014-04-04 08:39:00,0.00106910092724,0,0.911528606618,0.0,0.0,0.0,0
2014-04-04 08:44:00,0.00386521104463,0,0.913021068767,0.0,0.0,0.0,0
2014-04-04 08:49:00,0.00145973395835,0,0.913342855185,0.0,0.0,0.0,0
2014-04-04 08:54:00,0.0190793396246,0,0.912114950165,0.0,0.0,0.0,0
2014-04-04 08:59:00,0.00314562388207,0,0.913536228581,0.0,0.0,0.0,0
2014-04-04 09:04:00,0.00532494500298,0,0.913667392436,0.0,0.0,0.0,0
2014-04-04 09:09:00,0.0197989267871,0,0.912140778479,0.0,0.0,0.0,0
2014-04-04 09:14:00,0.011225559736,0,0.911435857916,0.0,0.0,0.0,0
2014-04-04 09:19:00,0.00943687164621,0,0.910713664844,0.0,0.0,0.0,0
2014-04-04 09:24:00,0.0105059725734,0,0.909836747363,0.0,0.0,0.0,0
2014-04-04 09:29:00,0.0113489175353,0,0.908892817894,0.0,0.0,0.0,0
2014-04-04 09:34:00,0.00941631201299,0,0.908380058367,0.0,0.0,0.0,0
2014-04-04 09:39:00,0.00676411932811,0,0.907888093189,0.0,0.0,0.0,0
2014-04-04 09:44:00,0.0091695964144,0,0.9088056096,0.0,0.0,0.0,0
2014-04-04 09:49:00,0.0111022019367,0,0.90806947015,0.0,0.0,0.0,0
2014-04-04 09:54:00,0.0284750920044,0,0.90590260984,0.0,0.0,0.0,0
2014-04-04 09:59:00,0.010752688172,0,0.906753783306,0.0,0.0,0.0,0
2014-04-04 10:04:00,0.0107732478053,0,0.906796192152,0.0,0.0,0.0,0
2014-04-04 10:09:00,0.026542486482,0,0.905182424557,0.0,0.0,0.0,0
2014-04-04 10:14:00,0.0125619358951,0,0.904987084471,0.0,0.0,0.0,0