timestamp,value,is_anomaly,anomaly_score
2014-02-14 14:30:00,0.063575600227,0,0.5
2014-02-14 14:35:00,0.0314362762576,0,0.5
2014-02-14 14:40:00,0.054134673811,0,0.5
2014-02-14 14:45:00,0.0314362762576,0,0.5
2014-02-14 14:50:00,0.0337462901679,0,0.5
2014-02-14 14:55:00,0.0530298845495,0,0.5
2014-02-14 15:00:00,0.0732173974178,0,0.5
2014-02-14 15:05:00,0.0631738586774,0,0.5
2014-02-14 15:10:00,0.0637764710018,0,0.5
2014-02-14 15:15:00,0.0323401947442,0,0.5
2014-02-14 15:20:00,0.0523268368377,0,0.5
2014-02-14 15:25:00,0.0438902642957,0,0.5
2014-02-14 15:30:00,0.0432876519713,0,0.5
2014-02-14 15:35:00,0.0323401947442,0,0.5
2014-02-14 15:40:00,0.0639773417766,0,0.5
2014-02-14 15:45:00,0.0216940436794,0,0.5
2014-02-14 15:50:00,0.0526281429999,0,0.5
2014-02-14 15:55:00,0.0436893935209,0,0.5
2014-02-14 16:00:00,0.0426850396469,0,0.5
2014-02-14 16:05:00,0.032541065519,0,0.5
2014-02-14 16:10:00,0.0418815565476,0,0.5
2014-02-14 16:15:00,0.0336458547805,0,0.5
2014-02-14 16:20:00,0.0623703755781,0,0.5
2014-02-14 16:25:00,0.0744226220667,0,0.5
2014-02-14 16:30:00,0.0432876519713,0,0.5
2014-02-14 16:35:00,0.022095785229,0,0.5
2014-02-14 16:40:00,0.0520255306755,0,0.5
2014-02-14 16:45:00,0.0436893935209,0,0.5
2014-02-14 16:50:00,0.0331436778435,0,0.5
2014-02-14 16:55:00,0.0417811211602,0,0.5
2014-02-14 17:00:00,0.0435889581335,0,0.5
2014-02-14 17:05:00,0.0216940436794,0,0.5
2014-02-14 17:10:00,0.054134673811,0,0.5
2014-02-14 17:15:00,0.0634751648396,0,0.5
2014-02-14 17:20:00,0.0942083933853,0,0.5
2014-02-14 17:25:00,0.0334449840057,0,0.5
2014-02-14 17:30:00,0.0534316260991,0,0.5
2014-02-14 17:35:00,0.0418815565476,0,0.5
2014-02-14 17:40:00,0.054636850748,0,0.5
2014-02-14 17:45:00,0.0323401947442,0,0.5
2014-02-14 17:50:00,0.0328423716812,0,0.5
2014-02-14 17:55:00,0.0323401947442,0,0.5
2014-02-14 18:00:00,0.0433880873587,0,0.5
2014-02-14 18:05:00,0.0520255306755,0,0.5
2014-02-14 18:10:00,0.0213927375171,0,0.5
2014-02-14 18:15:00,0.022597962166,0,0.5
2014-02-14 18:20:00,0.0421828627098,0,0.5
2014-02-14 18:25:00,0.0338467255553,0,0.5
2014-02-14 18:30:00,0.104452802901,0,0.5
2014-02-14 18:35:00,0.0415802503854,0,0.5
2014-02-14 18:40:00,0.0538333676488,0,0.5
2014-02-14 18:45:00,0.0327419362938,0,0.5
2014-02-14 18:50:00,0.0331436778435,0,0.5
2014-02-14 18:55:00,0.0429863458091,0,0.5
2014-02-14 19:00:00,0.0428859104217,0,0.5
2014-02-14 19:05:00,0.032038888582,0,0.5
2014-02-14 19:10:00,0.064579954101,0,0.5
2014-02-14 19:15:00,0.0429863458091,0,0.5
2014-02-14 19:20:00,0.0426850396469,0,0.5
2014-02-14 19:25:00,0.0427854750343,0,0.5
2014-02-14 19:30:00,0.096116665746,0,0.5
2014-02-14 19:35:00,0.0530298845495,0,0.5
2014-02-14 19:40:00,0.0526281429999,0,0.5
2014-02-14 19:45:00,0.0339471609427,0,0.5
2014-02-14 19:50:00,0.0428859104217,0,0.5
2014-02-14 19:55:00,0.0323401947442,0,0.5
2014-02-14 20:00:00,0.0532307553243,0,0.5
2014-02-14 20:05:00,0.0323401947442,0,0.5
2014-02-14 20:10:00,0.0514229183511,0,0.5
2014-02-14 20:15:00,0.0327419362938,0,0.5
2014-02-14 20:20:00,0.0644795187136,0,0.5
2014-02-14 20:25:00,0.0729160912556,0,0.5
2014-02-14 20:30:00,0.0435889581335,0,0.5
2014-02-14 20:35:00,0.0313358408702,0,0.5
2014-02-14 20:40:00,0.0435889581335,0,0.5
2014-02-14 20:45:00,0.0318380178072,0,0.5
2014-02-14 20:50:00,0.0426850396469,0,0.5
2014-02-14 20:55:00,0.0417811211602,0,0.5
2014-02-14 21:00:00,0.0331436778435,0,0.5
2014-02-14 21:05:00,0.0424841688721,0,0.5
2014-02-14 21:10:00,0.0434885227461,0,0.5
2014-02-14 21:15:00,0.0216940436794,0,0.5
2014-02-14 21:20:00,0.104251932126,0,0.5
2014-02-14 21:25:00,0.0443924412327,0,0.5
2014-02-14 21:30:00,0.0418815565476,0,0.5
2014-02-14 21:35:00,0.0337462901679,0,0.5
2014-02-14 21:40:00,0.0627721171277,0,0.5
2014-02-14 21:45:00,0.0432876519713,0,0.5
2014-02-14 21:50:00,0.0530298845495,0,0.5
2014-02-14 21:55:00,0.0550385922976,0,0.5
2014-02-14 22:00:00,0.0432876519713,0,0.5
2014-02-14 22:05:00,0.0413793796106,0,0.5
2014-02-14 22:10:00,0.0536324968739,0,0.5
2014-02-14 22:15:00,0.032541065519,0,0.5
2014-02-14 22:20:00,0.0526281429999,0,0.5
2014-02-14 22:25:00,0.0442920058453,0,0.5
2014-02-14 22:30:00,0.0833613715457,0,0.5
2014-02-14 22:35:00,0.064579954101,0,0.5
2014-02-14 22:40:00,0.0536324968739,0,0.5
2014-02-14 22:45:00,0.0647808248758,0,0.5
2014-02-14 22:50:00,0.0104452802901,0,0.5
2014-02-14 22:55:00,0.0428859104217,0,0.5
2014-02-14 23:00:00,0.0447941827824,0,0.5
2014-02-14 23:05:00,0.0323401947442,0,0.5
2014-02-14 23:10:00,0.0723134789312,0,0.5
2014-02-14 23:15:00,0.0757282821029,0,0.5
2014-02-14 23:20:00,0.0408772026736,0,0.5
2014-02-14 23:25:00,0.0233010098778,0,0.5
2014-02-14 23:30:00,0.0540342384236,0,0.5
2014-02-14 23:35:00,0.0215936082919,0,0.5
2014-02-14 23:40:00,0.0531303199369,0,0.5
2014-02-14 23:45:00,0.0215936082919,0,0.5
2014-02-14 23:50:00,0.0420824273224,0,0.5
2014-02-14 23:55:00,0.0379645764389,0,0.5
2014-02-15 00:00:00,0.0523268368377,0,0.5
2014-02-15 00:05:00,0.0311349700954,0,0.5
2014-02-15 00:10:00,0.055641204622,0,0.5
2014-02-15 00:15:00,0.0954136180342,0,0.5
2014-02-15 00:20:00,0.0741213159044,0,0.5
2014-02-15 00:25:00,0.0429863458091,0,0.5
2014-02-15 00:30:00,0.0520255306755,0,0.5
2014-02-15 00:35:00,0.0337462901679,0,0.5
2014-02-15 00:40:00,0.0539338030362,0,0.5
2014-02-15 00:45:00,0.0314362762576,0,0.5
2014-02-15 00:50:00,0.0437898289083,0,0.5
2014-02-15 00:55:00,0.0440911350705,0,0.5
2014-02-15 01:00:00,0.0428859104217,0,0.5
2014-02-15 01:05:00,0.032038888582,0,0.5
2014-02-15 01:10:00,0.135286466834,0,0.5
2014-02-15 01:15:00,0.0445933120076,0,0.5
2014-02-15 01:20:00,0.0533311907117,0,0.5
2014-02-15 01:25:00,0.0323401947442,0,0.5
2014-02-15 01:30:00,0.0322397593568,0,0.5
2014-02-15 01:35:00,0.0421828627098,0,0.5
2014-02-15 01:40:00,0.0519250952881,0,0.5
2014-02-15 01:45:00,0.0337462901679,0,0.5
2014-02-15 01:50:00,0.0523268368377,0,0.5
2014-02-15 01:55:00,0.0531303199369,0,0.5
2014-02-15 02:00:00,0.0540342384236,0,0.5
2014-02-15 02:05:00,0.107666735298,0,0.5
2014-02-15 02:10:00,0.0745230574541,0,0.5
2014-02-15 02:15:00,0.0424841688721,0,0.5
2014-02-15 02:20:00,0.0526281429999,0,0.5
2014-02-15 02:25:00,0.0430867811965,0,0.5
2014-02-15 02:30:00,0.045195924332,0,0.5
2014-02-15 02:35:00,0.0314362762576,0,0.5
2014-02-15 02:40:00,0.0550385922976,0,0.5
2014-02-15 02:45:00,0.0323401947442,0,0.5
2014-02-15 02:50:00,0.0426850396469,0,0.5
2014-02-15 02:55:00,0.0424841688721,0,0.5
2014-02-15 03:00:00,0.0525277076125,0,0.5
2014-02-15 03:05:00,0.0323401947442,0,0.5
2014-02-15 03:10:00,0.0421828627098,0,0.5
2014-02-15 03:15:00,0.033043242456,0,0.5
2014-02-15 03:20:00,0.0425846042595,0,0.5
2014-02-15 03:25:00,0.096618842683,0,0.5
2014-02-15 03:30:00,0.0838635484827,0,0.5
2014-02-15 03:35:00,0.0327419362938,0,0.5
2014-02-15 03:40:00,0.0538333676488,0,0.5
2014-02-15 03:45:00,0.0436893935209,0,0.5
2014-02-15 03:50:00,0.0525277076125,0,0.5
2014-02-15 03:55:00,0.0548377215228,0,0.5
2014-02-15 04:00:00,0.0626716817403,0,0.5
2014-02-15 04:05:00,0.0426850396469,0,0.5
2014-02-15 04:10:00,0.0507198706392,0,0.5
2014-02-15 04:15:00,0.0441915704579,0,0.5
2014-02-15 04:20:00,0.0428859104217,0,0.5
2014-02-15 04:25:00,0.0429863458091,0,0.5
2014-02-15 04:30:00,0.0418815565476,0,0.5
2014-02-15 04:35:00,0.0337462901679,0,0.5
2014-02-15 04:40:00,0.0428859104217,0,0.5
2014-02-15 04:45:00,0.0431872165839,0,0.5
2014-02-15 04:50:00,0.0428859104217,0,0.5
2014-02-15 04:55:00,0.0415802503854,0,0.5
2014-02-15 05:00:00,0.0340475963301,0,0.5
2014-02-15 05:05:00,0.0426850396469,0,0.5
2014-02-15 05:10:00,0.0536324968739,0,0.5
2014-02-15 05:15:00,0.032541065519,0,0.5
2014-02-15 05:20:00,0.032038888582,0,0.5
2014-02-15 05:25:00,0.0417811211602,0,0.5
2014-02-15 05:30:00,0.0450954889446,0,0.5
2014-02-15 05:35:00,0.0323401947442,0,0.5
2014-02-15 05:40:00,0.032541065519,0,0.5
2014-02-15 05:45:00,0.0429863458091,0,0.5
2014-02-15 05:50:00,0.0742217512919,0,0.5
2014-02-15 05:55:00,0.0524272722251,0,0.5
2014-02-15 06:00:00,0.0341480317175,0,0.5
2014-02-15 06:05:00,0.0420824273224,0,0.5
2014-02-15 06:10:00,0.0435889581335,0,0.5
2014-02-15 06:15:00,0.0427854750343,0,0.5
2014-02-15 06:20:00,0.0537329322614,0,0.5
2014-02-15 06:25:00,0.0418815565476,0,0.5
2014-02-15 06:30:00,0.0540342384236,0,0.5
2014-02-15 06:35:00,0.0519250952881,0,0.5
2014-02-15 06:40:00,0.0443924412327,0,0.5
2014-02-15 06:45:00,0.0426850396469,0,0.5
2014-02-15 06:50:00,0.0533311907117,0,0.5
2014-02-15 06:55:00,0.0532307553243,0,0.5
2014-02-15 07:00:00,0.0426850396469,0,0.5
2014-02-15 07:05:00,0.0426850396469,0,0.5
2014-02-15 07:10:00,0.0532307553243,0,0.5
2014-02-15 07:15:00,0.0426850396469,0,0.5
2014-02-15 07:20:00,0.0536324968739,0,0.5
2014-02-15 07:25:00,0.0427854750343,0,0.5
2014-02-15 07:30:00,0.0428859104217,0,0.5
2014-02-15 07:35:00,0.0314362762576,0,0.5
2014-02-15 07:40:00,0.0549381569102,0,0.5
2014-02-15 07:45:00,0.0206896898053,0,0.5
2014-02-15 07:50:00,0.0540342384236,0,0.5
2014-02-15 07:55:00,0.0838635484827,0,0.5
2014-02-15 08:00:00,0.0308336639332,0,0.5
2014-02-15 08:05:00,0.0625712463529,0,0.5
2014-02-15 08:10:00,0.0733178328052,0,0.5
2014-02-15 08:15:00,0.00190827236068,0,0.5
2014-02-15 08:20:00,0.0329428070686,0,0.5
2014-02-15 08:25:00,0.0427854750343,0,0.5
2014-02-15 08:30:00,0.0430867811965,0,0.5
2014-02-15 08:35:00,0.022095785229,0,0.5
2014-02-15 08:40:00,0.06307342329,0,0.5
2014-02-15 08:45:00,0.0336458547805,0,0.5
2014-02-15 08:50:00,0.0533311907117,0,0.5
2014-02-15 08:55:00,0.0522264014503,0,0.5
2014-02-15 09:00:00,0.0445933120076,0,0.5
2014-02-15 09:05:00,0.0533311907117,0,0.5
2014-02-15 09:10:00,0.0523268368377,0,0.5
2014-02-15 09:15:00,0.0627721171277,0,0.5
2014-02-15 09:20:00,0.0435889581335,0,0.5
2014-02-15 09:25:00,0.0531303199369,0,0.5
2014-02-15 09:30:00,0.0430867811965,0,0.5
2014-02-15 09:35:00,0.0429863458091,0,0.5
2014-02-15 09:40:00,0.0521259660629,0,0.5
2014-02-15 09:45:00,0.0440911350705,0,0.5
2014-02-15 09:50:00,0.0435889581335,0,0.5
2014-02-15 09:55:00,0.0427854750343,0,0.5
2014-02-15 10:00:00,0.0526281429999,0,0.5
2014-02-15 10:05:00,0.0229997037156,0,0.5
2014-02-15 10:10:00,0.0833613715457,0,0.5
2014-02-15 10:15:00,0.0311349700954,0,0.5
2014-02-15 10:20:00,0.0435889581335,0,0.5
2014-02-15 10:25:00,0.0436893935209,0,0.5
2014-02-15 10:30:00,0.0430867811965,0,0.5
2014-02-15 10:35:00,0.032038888582,0,0.5
2014-02-15 10:40:00,0.0327419362938,0,0.5
2014-02-15 10:45:00,0.0518246599007,0,0.5
2014-02-15 10:50:00,0.0433880873587,0,0.5
2014-02-15 10:55:00,0.0637764710018,0,0.5
2014-02-15 11:00:00,0.0521259660629,0,0.5
2014-02-15 11:05:00,0.0429863458091,0,0.5
2014-02-15 11:10:00,0.0962171011334,0,0.5
2014-02-15 11:15:00,0.0440911350705,0,0.5
2014-02-15 11:20:00,0.073016526643,0,0.5
2014-02-15 11:25:00,0.0634751648396,0,0.5
2014-02-15 11:30:00,0.0646803894884,0,0.5
2014-02-15 11:35:00,0.0532307553243,0,0.5
2014-02-15 11:40:00,0.073016526643,0,0.5
2014-02-15 11:45:00,0.0533311907117,0,0.5
2014-02-15 11:50:00,0.0648812602632,0,0.5
2014-02-15 11:55:00,0.0538333676488,0,0.5
2014-02-15 12:00:00,0.0615668924789,0,0.5
2014-02-15 12:05:00,0.0438902642957,0,0.5
2014-02-15 12:10:00,0.0627721171277,0,0.5
2014-02-15 12:15:00,0.0533311907117,0,0.5
2014-02-15 12:20:00,0.0629729879026,0,0.5
2014-02-15 12:25:00,0.0636760356144,0,0.5
2014-02-15 12:30:00,0.0940075226105,0,0.5
2014-02-15 12:35:00,0.0519250952881,0,0.5
2014-02-15 12:40:00,0.0741213159044,0,0.5
2014-02-15 12:45:00,0.0548377215228,0,0.5
2014-02-15 12:50:00,0.0615668924789,0,0.5
2014-02-15 12:55:00,0.0646803894884,0,0.5
2014-02-15 13:00:00,0.073016526643,0,0.5
2014-02-15 13:05:00,0.0532307553243,0,0.5
2014-02-15 13:10:00,0.0632742940648,0,0.5
2014-02-15 13:15:00,0.0539338030362,0,0.5
2014-02-15 13:20:00,0.104452802901,0,0.5
2014-02-15 13:25:00,0.0426850396469,0,0.5
2014-02-15 13:30:00,0.0637764710018,0,0.5
2014-02-15 13:35:00,0.0634751648396,0,0.5
2014-02-15 13:40:00,0.0633747294522,0,0.5
2014-02-15 13:45:00,0.0518246599007,0,0.5
2014-02-15 13:50:00,0.0537329322614,0,0.5
2014-02-15 13:55:00,0.0652830018129,0,0.5
2014-02-15 14:00:00,0.0643790833262,0,0.5
2014-02-15 14:05:00,0.0638769063892,0,0.5
2014-02-15 14:10:00,0.0852696439063,0,0.5
2014-02-15 14:15:00,0.0522264014503,0,0.5
2014-02-15 14:20:00,0.0864748685552,0,0.5
2014-02-15 14:25:00,0.0322397593568,0,0.5
2014-02-15 14:30:00,0.0427854750343,0,0.5
2014-02-15 14:35:00,0.0623703755781,0,0.5
2014-02-15 14:40:00,0.0646803894884,0,0.5
2014-02-15 14:45:00,0.0543355445858,0,0.5
2014-02-15 14:50:00,0.0523268368377,0,0.5
2014-02-15 14:55:00,0.0752261051659,0,0.5
2014-02-15 15:00:00,0.06307342329,0,0.5
2014-02-15 15:05:00,0.0641782125514,0,0.5
2014-02-15 15:10:00,0.0647808248758,0,0.5
2014-02-15 15:15:00,0.0427854750343,0,0.5
2014-02-15 15:20:00,0.0937062164483,0,0.5
2014-02-15 15:25:00,0.0642786479388,0,0.5
2014-02-15 15:30:00,0.0550385922976,0,0.5
2014-02-15 15:35:00,0.0423837334847,0,0.5
2014-02-15 15:40:00,0.0643790833262,0,0.5
2014-02-15 15:45:00,0.0427854750343,0,0.5
2014-02-15 15:50:00,0.0531303199369,0,0.5
2014-02-15 15:55:00,0.0534316260991,0,0.5
2014-02-15 16:00:00,0.0620690694159,0,0.5
2014-02-15 16:05:00,0.0323401947442,0,0.5
2014-02-15 16:10:00,0.0643790833262,0,0.5
2014-02-15 16:15:00,0.0314362762576,0,0.5
2014-02-15 16:20:00,0.0542351091984,0,0.5
2014-02-15 16:25:00,0.0535320614865,0,0.5
2014-02-15 16:30:00,0.0833613715457,0,0.5
2014-02-15 16:35:00,0.0548377215228,0,0.5
2014-02-15 16:40:00,0.0531303199369,0,0.5
2014-02-15 16:45:00,0.0424841688721,0,0.5
2014-02-15 16:50:00,0.041479814998,0,0.5
2014-02-15 16:55:00,0.0441915704579,0,0.5
2014-02-15 17:00:00,0.0532307553243,0,0.5
2014-02-15 17:05:00,0.0427854750343,0,0.5
2014-02-15 17:10:00,0.0628725525152,0,0.5
2014-02-15 17:15:00,0.0761300236525,0,0.5
2014-02-15 17:20:00,0.0411785088358,0,0.5
2014-02-15 17:25:00,0.0443924412327,0,0.5
2014-02-15 17:30:00,0.0533311907117,0,0.5
2014-02-15 17:35:00,0.0323401947442,0,0.5
2014-02-15 17:40:00,0.0521259660629,0,0.5
2014-02-15 17:45:00,0.0229997037156,0,0.5
2014-02-15 17:50:00,0.0533311907117,0,0.5
2014-02-15 17:55:00,0.0427854750343,0,0.5
2014-02-15 18:00:00,0.116002872452,0,0.5
2014-02-15 18:05:00,0.0317375824198,0,0.5
2014-02-15 18:10:00,0.0627721171277,0,0.5
2014-02-15 18:15:00,0.0427854750343,0,0.5
2014-02-15 18:20:00,0.0516237891259,0,0.5
2014-02-15 18:25:00,0.0529294491621,0,0.5
2014-02-15 18:30:00,0.0531303199369,0,0.5
2014-02-15 18:35:00,0.0427854750343,0,0.5
2014-02-15 18:40:00,0.0535320614865,0,0.5
2014-02-15 18:45:00,0.0838635484827,0,0.5
2014-02-15 18:50:00,0.0618681986411,0,0.5
2014-02-15 18:55:00,0.0432876519713,0,0.5
2014-02-15 19:00:00,0.0544359799732,0,0.5
2014-02-15 19:05:00,0.0321393239694,0,0.5
2014-02-15 19:10:00,0.0637764710018,0,0.5
2014-02-15 19:15:00,0.0520255306755,0,0.5
2014-02-15 19:20:00,0.087177916267,0,0.5
2014-02-15 19:25:00,0.0214931729045,0,0.5
2014-02-15 19:30:00,0.0540342384236,0,0.5
2014-02-15 19:35:00,0.0311349700954,0,0.5
2014-02-15 19:40:00,0.0445933120076,0,0.5
2014-02-15 19:45:00,0.0323401947442,0,0.5
2014-02-15 19:50:00,0.0313358408702,0,0.5
2014-02-15 19:55:00,0.0428859104217,0,0.5
2014-02-15 20:00:00,0.0328423716812,0,0.5
2014-02-15 20:05:00,0.0322397593568,0,0.5
2014-02-15 20:10:00,0.0533311907117,0,0.5
2014-02-15 20:15:00,0.0949114410972,0,0.5
2014-02-15 20:20:00,0.0322397593568,0,0.5
2014-02-15 20:25:00,0.0313358408702,0,0.5
2014-02-15 20:30:00,0.0329428070686,0,0.5
2014-02-15 20:35:00,0.0323401947442,0,0.5
2014-02-15 20:40:00,0.0729160912556,0,0.5
2014-02-15 20:45:00,0.0336458547805,0,0.5
2014-02-15 20:50:00,0.0421828627098,0,0.5
2014-02-15 20:55:00,0.0545364153606,0,0.5
2014-02-15 21:00:00,0.0420824273224,0,0.5
2014-02-15 21:05:00,0.0429863458091,0,0.5
2014-02-15 21:10:00,0.0545364153606,0,0.5
2014-02-15 21:15:00,0.0860731270056,0,0.5
2014-02-15 21:20:00,0.0732173974178,0,0.5
2014-02-15 21:25:00,0.0233010098778,0,0.5
2014-02-15 21:30:00,0.0627721171277,0,0.5
2014-02-15 21:35:00,0.0339471609427,0,0.5
2014-02-15 21:40:00,0.0530298845495,0,0.5
2014-02-15 21:45:00,0.032541065519,0,0.5
2014-02-15 21:50:00,0.0405758965114,0,0.5
2014-02-15 21:55:00,0.0337462901679,0,0.5
2014-02-15 22:00:00,0.0744226220667,0,0.5
2014-02-15 22:05:00,0.12286612465,0,0.5
2014-02-15 22:10:00,0.0423837334847,0,0.5
2014-02-15 22:15:00,0.0229997037156,0,0.5
2014-02-15 22:20:00,0.0412789442232,0,0.5
2014-02-15 22:25:00,0.0322397593568,0,0.5
2014-02-15 22:30:00,0.0418815565476,0,0.5
2014-02-15 22:35:00,0.0337462901679,0,0.5
2014-02-15 22:40:00,0.0428859104217,0,0.5
2014-02-15 22:45:00,0.0427854750343,0,0.5
2014-02-15 22:50:00,0.0540342384236,0,0.60079095612
2014-02-15 22:55:00,0.0417811211602,0,0.765327104402
2014-02-15 23:00:00,0.0449950535572,0,0.76067244263
2014-02-15 23:05:00,0.0423837334847,0,0.724596895131
2014-02-15 23:10:00,0.0531303199369,0,0.701294705299
2014-02-15 23:15:00,0.116103307839,0,0.517522610096
2014-02-15 23:20:00,0.0533311907117,0,0.508843158037
2014-02-15 23:25:00,0.041981991935,0,0.527790794547
2014-02-15 23:30:00,0.0441915704579,0,0.530790026335
2014-02-15 23:35:00,0.0323401947442,0,0.506761548307
2014-02-15 23:40:00,0.0431872165839,0,0.518215917137
2014-02-15 23:45:00,0.0427854750343,0,0.515904691201
2014-02-15 23:50:00,0.0418815565476,0,0.513262832558
2014-02-15 23:55:00,0.0284232146354,0,0.545322831565
2014-02-16 00:00:00,0.112487633893,0,0.590507215223
2014-02-16 00:05:00,0.0751256697785,0,0.503086528809
2014-02-16 00:10:00,0.0521259660629,0,0.505862362326
2014-02-16 00:15:00,0.0547372861354,0,0.52350329258
2014-02-16 00:20:00,0.0428859104217,0,0.520500526253
2014-02-16 00:25:00,0.0530298845495,0,0.567834239382
2014-02-16 00:30:00,0.0531303199369,0,0.590281844936
2014-02-16 00:35:00,0.0427854750343,0,0.590281844936
2014-02-16 00:40:00,0.0643790833262,0,0.639888517921
2014-02-16 00:45:00,0.0426850396469,0,0.670213325588
2014-02-16 00:50:00,0.0420824273224,0,0.513566906674
2014-02-16 00:55:00,0.0533311907117,0,0.536578655269
2014-02-16 01:00:00,0.0519250952881,0,0.537039353422
2014-02-16 01:05:00,0.032541065519,0,0.587503945817
2014-02-16 01:10:00,0.0723134789312,0,0.52042771053
2014-02-16 01:15:00,0.0427854750343,0,0.54394352125
2014-02-16 01:20:00,0.0521259660629,0,0.546242069313
2014-02-16 01:25:00,0.0431872165839,0,0.545322831565
2014-02-16 01:30:00,0.0660864849121,0,0.541413421633
2014-02-16 01:35:00,0.104352367513,0,0.599496742071
2014-02-16 01:40:00,0.0442920058453,0,0.604418935106
2014-02-16 01:45:00,0.0323401947442,0,0.557095419846
2014-02-16 01:50:00,0.0432876519713,0,0.537342276556
2014-02-16 01:55:00,0.0429863458091,0,0.561213560567
2014-02-16 02:00:00,0.0420824273224,0,0.508175345809
2014-02-16 02:05:00,0.0332441132309,0,0.530124009709
2014-02-16 02:10:00,0.041479814998,0,0.554503479913
2014-02-16 02:15:00,0.0845665961945,0,0.540565498892
2014-02-16 02:20:00,0.0840644192575,0,0.581469846134
2014-02-16 02:25:00,0.0430867811965,0,0.558854377556
2014-02-16 02:30:00,0.032541065519,0,0.585471057779
2014-02-16 02:35:00,0.0339471609427,0,0.581851409358
2014-02-16 02:40:00,0.0428859104217,0,0.582756984298
2014-02-16 02:45:00,0.0217944790668,0,0.629792588003
2014-02-16 02:50:00,0.0428859104217,0,0.628039402098
2014-02-16 02:55:00,0.0427854750343,0,0.607026548511
2014-02-16 03:00:00,0.0533311907117,0,0.580492234419
2014-02-16 03:05:00,0.0938066518357,0,0.559540726353
2014-02-16 03:10:00,0.0867761747174,0,0.553357392968
2014-02-16 03:15:00,0.0422832980973,0,0.555190914137
2014-02-16 03:20:00,0.0314362762576,0,0.557710070987
2014-02-16 03:25:00,0.0439906996831,0,0.534735378205
2014-02-16 03:30:00,0.0328423716812,0,0.557710070987
2014-02-16 03:35:00,0.0314362762576,0,0.535657112398
2014-02-16 03:40:00,0.0749247990037,0,0.538033180802
2014-02-16 03:45:00,0.0,0,0.56022689631
2014-02-16 03:50:00,0.0336458547805,0,0.604571891802
2014-02-16 03:55:00,0.0429863458091,0,0.711787040097
2014-02-16 04:00:00,0.0432876519713,0,0.790942665432
2014-02-16 04:05:00,0.0221962206164,0,0.822691336914
2014-02-16 04:10:00,0.0415802503854,0,0.807057353012
2014-02-16 04:15:00,0.022095785229,0,0.839770496507
2014-02-16 04:20:00,0.0439906996831,0,0.823594207662
2014-02-16 04:25:00,0.0532307553243,0,0.789104483276
2014-02-16 04:30:00,0.0418815565476,0,0.839911677177
2014-02-16 04:35:00,0.0427854750343,0,0.772489503495
2014-02-16 04:40:00,0.0521259660629,0,0.739035430073
2014-02-16 04:45:00,0.0235018806526,0,0.774235746129
2014-02-16 04:50:00,0.0527285783873,0,0.757524420268
2014-02-16 04:55:00,0.0334449840057,0,0.736769020328
2014-02-16 05:00:00,0.0521259660629,0,0.716518445097
2014-02-16 05:05:00,0.0218949144542,0,0.716911042402
2014-02-16 05:10:00,0.041479814998,0,0.721796363128
2014-02-16 05:15:00,0.0323401947442,0,0.760775431765
2014-02-16 05:20:00,0.0533311907117,0,0.739788663923
2014-02-16 05:25:00,0.0211918667423,0,0.778568018022
2014-02-16 05:30:00,0.0345497732671,0,0.807533529248
2014-02-16 05:35:00,0.0323401947442,0,0.793268471595
2014-02-16 05:40:00,0.0432876519713,0,0.808483723856
2014-02-16 05:45:00,0.0321393239694,0,0.810532597068
2014-02-16 05:50:00,0.0328423716812,0,0.839204960247
2014-02-16 05:55:00,0.0427854750343,0,0.808008986313
2014-02-16 06:00:00,0.0428859104217,0,0.805784036485
2014-02-16 06:05:00,0.032038888582,0,0.806262128761
2014-02-16 06:10:00,0.0428859104217,0,0.822389732703
2014-02-16 06:15:00,0.0218949144542,0,0.821331570395
2014-02-16 06:20:00,0.0429863458091,0,0.808325557977
2014-02-16 06:25:00,0.0322397593568,0,0.808483723856
2014-02-16 06:30:00,0.0426850396469,0,0.809431038999
2014-02-16 06:35:00,0.0314362762576,0,0.810532597068
2014-02-16 06:40:00,0.0435889581335,0,0.793268471595
2014-02-16 06:45:00,0.0323401947442,0,0.810060981385
2014-02-16 06:50:00,0.0418815565476,0,0.811630228022
2014-02-16 06:55:00,0.0427854750343,0,0.794425606506
2014-02-16 07:00:00,0.0535320614865,0,0.776494485529
2014-02-16 07:05:00,0.0218949144542,0,0.776494485529
2014-02-16 07:10:00,0.0533311907117,0,0.758248929057
2014-02-16 07:15:00,0.0523268368377,0,0.720627643713
2014-02-16 07:20:00,0.0954136180342,0,0.610366942974
2014-02-16 07:25:00,0.0104452802901,0,0.655962304716
2014-02-16 07:30:00,0.0338467255553,0,0.676421618122
2014-02-16 07:35:00,0.0308336639332,0,0.679540283637
2014-02-16 07:40:00,0.0550385922976,0,0.65189836823
2014-02-16 07:45:00,0.0323401947442,0,0.673917719341
2014-02-16 07:50:00,0.0421828627098,0,0.69717142219
2014-02-16 07:55:00,0.0970205842326,0,0.532891355534
2014-02-16 08:00:00,0.0625712463529,0,0.511644281395
2014-02-16 08:05:00,0.0429863458091,0,0.533121897797
2014-02-16 08:10:00,0.0408772026736,0,0.587756039337
2014-02-16 08:15:00,0.032541065519,0,0.537526899321
2014-02-16 08:20:00,0.054636850748,0,0.510302677641
2014-02-16 08:25:00,0.0323401947442,0,0.513771104254
2014-02-16 08:30:00,0.0846670315819,0,0.581443394327
2014-02-16 08:35:00,0.000301306162213,0,0.508221230836
2014-02-16 08:40:00,0.054134673811,0,0.535702823441
2014-02-16 08:45:00,0.0311349700954,0,0.614390558636
2014-02-16 08:50:00,0.054134673811,0,0.632879668947
2014-02-16 08:55:00,0.0424841688721,0,0.633971031564
2014-02-16 09:00:00,0.0550385922976,0,0.602810186378
2014-02-16 09:05:00,0.0323401947442,0,0.603257337691
2014-02-16 09:10:00,0.0818548407346,0,0.541670371126
2014-02-16 09:15:00,0.0432876519713,0,0.516526246742
2014-02-16 09:20:00,0.0540342384236,0,0.586401230694
2014-02-16 09:25:00,0.0427854750343,0,0.510765185272
2014-02-16 09:30:00,0.0531303199369,0,0.508452514796
2014-02-16 09:35:00,0.0522264014503,0,0.55683970692
2014-02-16 09:40:00,0.0651825664255,0,0.581896334147
2014-02-16 09:45:00,0.0209909959675,0,0.532937093963
2014-02-16 09:50:00,0.0540342384236,0,0.530631098282
2014-02-16 09:55:00,0.063575600227,0,0.601486187334
2014-02-16 10:00:00,0.0431872165839,0,0.513539905315
2014-02-16 10:05:00,0.0337462901679,0,0.508433641257
2014-02-16 10:10:00,0.0539338030362,0,0.50866492261
2014-02-16 10:15:00,0.0314362762576,0,0.534762292605
2014-02-16 10:20:00,0.096116665746,0,0.563928669904
2014-02-16 10:25:00,0.0125544234255,0,0.527151367494
2014-02-16 10:30:00,0.031034534708,0,0.604597974972
2014-02-16 10:35:00,0.0423837334847,0,0.556363015053
2014-02-16 10:40:00,0.0744226220667,0,0.509590018112
2014-02-16 10:45:00,0.0317375824198,0,0.582330691141
2014-02-16 10:50:00,0.0613660217041,0,0.540980094543
2014-02-16 10:55:00,0.0650821310381,0,0.53109238212
2014-02-16 11:00:00,0.0625712463529,0,0.550879966924
2014-02-16 11:05:00,0.0847674669693,0,0.668507488807
2014-02-16 11:10:00,0.0535320614865,0,0.5753183742
2014-02-16 11:15:00,0.0626716817403,0,0.684132351095
2014-02-16 11:20:00,0.0445933120076,0,0.7114303697
2014-02-16 11:25:00,0.0535320614865,0,0.733007281539
2014-02-16 11:30:00,0.0739204451296,0,0.732053149496
2014-02-16 11:35:00,0.0427854750343,0,0.75263971872
2014-02-16 11:40:00,0.0742217512919,0,0.775488052669
2014-02-16 11:45:00,0.0522264014503,0,0.75263971872
2014-02-16 11:50:00,0.0531303199369,0,0.735100314472
2014-02-16 11:55:00,0.054636850748,0,0.675212052948
2014-02-16 12:00:00,0.06307342329,0,0.694777745164
2014-02-16 12:05:00,0.0538333676488,0,0.676671236602
2014-02-16 12:10:00,0.0769335067518,0,0.740578049593
2014-02-16 12:15:00,0.0837631130953,0,0.793797659363
2014-02-16 12:20:00,0.0554403338472,0,0.762068847969
2014-02-16 12:25:00,0.0522264014503,0,0.778602206225
2014-02-16 12:30:00,0.0544359799732,0,0.743201375125
2014-02-16 12:35:00,0.0536324968739,0,0.745810825616
2014-02-16 12:40:00,0.0752261051659,0,0.784925342838
2014-02-16 12:45:00,0.0536324968739,0,0.783226806418
2014-02-16 12:50:00,0.0761300236525,0,0.804697446172
2014-02-16 12:55:00,0.0636760356144,0,0.819995445128
2014-02-16 13:00:00,0.0639773417766,0,0.799698435496
2014-02-16 13:05:00,0.0845665961945,0,0.800995807555
2014-02-16 13:10:00,0.0844661608071,0,0.844413982954
2014-02-16 13:15:00,0.0427854750343,0,0.83103368059
2014-02-16 13:20:00,0.0742217512919,0,0.858250531515
2014-02-16 13:25:00,0.0532307553243,0,0.857729254186
2014-02-16 13:30:00,0.0533311907117,0,0.82735418898
2014-02-16 13:35:00,0.0427854750343,0,0.810877737717
2014-02-16 13:40:00,0.0521259660629,0,0.771121887561
2014-02-16 13:45:00,0.0438902642957,0,0.735100314472
2014-02-16 13:50:00,0.0525277076125,0,0.713012564731
2014-02-16 13:55:00,0.0642786479388,0,0.671866692197
2014-02-16 14:00:00,0.0625712463529,0,0.625008572937
2014-02-16 14:05:00,0.0438902642957,0,0.627424804144
2014-02-16 14:10:00,0.0625712463529,0,0.601709978909
2014-02-16 14:15:00,0.0442920058453,0,0.581669877774
2014-02-16 14:20:00,0.105457156775,0,0.693964538823
2014-02-16 14:25:00,0.0427854750343,0,0.693964538823
2014-02-16 14:30:00,0.0744226220667,0,0.737563101843
2014-02-16 14:35:00,0.0418815565476,0,0.733769349772
2014-02-16 14:40:00,0.0658856141373,0,0.758465761338
2014-02-16 14:45:00,0.0637764710018,0,0.757560382004
2014-02-16 14:50:00,0.0531303199369,0,0.740202161949
2014-02-16 14:55:00,0.0625712463529,0,0.773921702554
2014-02-16 15:00:00,0.0656847433625,0,0.779290870986
2014-02-16 15:05:00,0.0523268368377,0,0.79280427321
2014-02-16 15:10:00,0.116605484777,0,0.810720788825
2014-02-16 15:15:00,0.0538333676488,0,0.827502342379
2014-02-16 15:20:00,0.0550385922976,0,0.797415842973
2014-02-16 15:25:00,0.0522264014503,0,0.81384452094
2014-02-16 15:30:00,0.0540342384236,0,0.794953034176
2014-02-16 15:35:00,0.0436893935209,0,0.760451116316
2014-02-16 15:40:00,0.064579954101,0,0.780493077246
2014-02-16 15:45:00,0.0532307553243,0,0.764216473715
2014-02-16 15:50:00,0.073016526643,0,0.77704822655
2014-02-16 15:55:00,0.0639773417766,0,0.796596878036
2014-02-16 16:00:00,0.0761300236525,0,0.724358811076
2014-02-16 16:05:00,0.0845665961945,0,0.78032156415
2014-02-16 16:10:00,0.0421828627098,0,0.757741604824
2014-02-16 16:15:00,0.0524272722251,0,0.758103830097
2014-02-16 16:20:00,0.0744226220667,0,0.793301319653
2014-02-16 16:25:00,0.0948110057098,0,0.867163660061
2014-02-16 16:30:00,0.0641782125514,0,0.834078709431
2014-02-16 16:35:00,0.0532307553243,0,0.834078709431
2014-02-16 16:40:00,0.0629729879026,0,0.819226749667
2014-02-16 16:45:00,0.0532307553243,0,0.802442010322
2014-02-16 16:50:00,0.0637764710018,0,0.782025522502
2014-02-16 16:55:00,0.0741213159044,0,0.763851216702
2014-02-16 17:00:00,0.0513224829636,0,0.779798811005
2014-02-16 17:05:00,0.054636850748,0,0.783559457026
2014-02-16 17:10:00,0.0618681986411,0,0.761701766976
2014-02-16 17:15:00,0.0337462901679,0,0.64028723719
2014-02-16 17:20:00,0.0426850396469,0,0.592947863727
2014-02-16 17:25:00,0.0518246599007,0,0.589794511387
2014-02-16 17:30:00,0.0976231965571,0,0.665336341058
2014-02-16 17:35:00,0.032038888582,0,0.619709886303
2014-02-16 17:40:00,0.0428859104217,0,0.573034877672
2014-02-16 17:45:00,0.0417811211602,0,0.501042004927
2014-02-16 17:50:00,0.0340475963301,0,0.540760360111
2014-02-16 17:55:00,0.0425846042595,0,0.568255224088
2014-02-16 18:00:00,0.0533311907117,0,0.587540497562
2014-02-16 18:05:00,0.0323401947442,0,0.590698021348
2014-02-16 18:10:00,0.12383683267,0,0.594522297068
2014-02-16 18:15:00,0.00190827236068,0,0.519540943837
2014-02-16 18:20:00,0.0523268368377,0,0.621918230258
2014-02-16 18:25:00,0.0443924412327,0,0.594524242543
2014-02-16 18:30:00,0.0625712463529,0,0.549953657921
2014-02-16 18:35:00,0.0424841688721,0,0.548346622921
2014-02-16 18:40:00,0.0521259660629,0,0.506825035076
2014-02-16 18:45:00,0.0440911350705,0,0.503355311322
2014-02-16 18:50:00,0.0426850396469,0,0.527854136046
2014-02-16 18:55:00,0.0519250952881,0,0.517228059328
2014-02-16 19:00:00,0.0534316260991,0,0.641806158554
2014-02-16 19:05:00,0.0648812602632,0,0.50011466627
2014-02-16 19:10:00,0.0206896898053,0,0.572354396759
2014-02-16 19:15:00,0.096618842683,0,0.547425971879
2014-02-16 19:20:00,0.0529294491621,0,0.525313115277
2014-02-16 19:25:00,0.0417811211602,0,0.523696830916
2014-02-16 19:30:00,0.0449950535572,0,0.50728563003
2014-02-16 19:35:00,0.0311349700954,0,0.522544100517
2014-02-16 19:40:00,0.0536324968739,0,0.502659325822
2014-02-16 19:45:00,0.0323401947442,0,0.542370902992
2014-02-16 19:50:00,0.0428859104217,0,0.566430980383
2014-02-16 19:55:00,0.0427854750343,0,0.61595194218
2014-02-16 20:00:00,0.0430867811965,0,0.565746521805
2014-02-16 20:05:00,0.0323401947442,0,0.704252819967
2014-02-16 20:10:00,0.0521259660629,0,0.705853285363
2014-02-16 20:15:00,0.0838635484827,0,0.617280216839
2014-02-16 20:20:00,0.0314362762576,0,0.646774878356