timestamp,value,is_anomaly,anomaly_score
2014-04-10 00:04:00,0.9109402889465208,0,0.9109402889465208
2014-04-10 00:09:00,0.9462656491967834,0,0.9462656491967834
2014-04-10 00:14:00,0.9140499157291142,0,0.9140499157291142
2014-04-10 00:19:00,0.9328818155245008,0,0.9328818155245008
2014-04-10 00:24:00,0.9244236306758464,0,0.9244236306758464
2014-04-10 00:29:00,0.9233787960768948,0,0.9233787960768948
2014-04-10 00:34:00,0.9575846906854241,0,0.9575846906854241
2014-04-10 00:39:00,0.9518878544197126,0,0.9518878544197126
2014-04-10 00:44:00,0.9420365567724562,0,0.9420365567724562
2014-04-10 00:49:00,0.9207915865937769,0,0.9207915865937769
2014-04-10 00:54:00,0.9389269299898628,0,0.9389269299898628
2014-04-10 00:59:00,0.9207915865937769,0,0.9207915865937769
2014-04-10 01:04:00,0.9410165991877656,0,0.9410165991877656
2014-04-10 01:09:00,0.9213140038932528,0,0.9213140038932528
2014-04-10 01:14:00,0.9073082448644514,0,0.9073082448644514
2014-04-10 01:19:00,0.8560118414587882,0,0.8560118414587882
2014-04-10 01:24:00,0.8959145723330286,0,0.8959145723330286
2014-04-10 01:29:00,0.9071092287503656,0,0.9071092287503656
2014-04-10 01:34:00,0.8873568794273317,0,0.8873568794273317
2014-04-10 01:39:00,0.9290756323426064,0,0.9290756323426064
2014-04-10 01:44:00,0.8853915953007321,0,0.8853915953007321
2014-04-10 01:49:00,0.8933273628499109,0,0.8933273628499109
2014-04-10 01:54:00,0.8943970744631228,0,0.8943970744631228
2014-04-10 01:59:00,0.9010889912992642,0,0.9010889912992642
2014-04-10 02:04:00,0.8928049455504351,0,0.8928049455504351
2014-04-10 02:09:00,0.8762119770385158,0,0.8762119770385158
2014-04-10 02:14:00,0.8902177360673172,0,0.8902177360673172
2014-04-10 02:19:00,0.8891729014683658,0,0.8891729014683658
2014-04-10 02:24:00,0.9316877188399848,0,0.9316877188399848
2014-04-10 02:29:00,0.931662841825724,0,0.931662841825724
2014-04-10 02:34:00,0.9333047247669336,0,0.9333047247669336
2014-04-10 02:39:00,0.9306428842410336,0,0.9306428842410336
2014-04-10 02:44:00,0.911985123545472,0,0.911985123545472
2014-04-10 02:49:00,0.8982530116735389,0,0.8982530116735389
2014-04-10 02:54:00,0.9037010777966429,0,0.9037010777966429
2014-04-10 02:59:00,0.9197467519948256,0,0.9197467519948256
2014-04-10 03:04:00,0.9415638935015022,0,0.9415638935015022
2014-04-10 03:09:00,0.9560423158012576,0,0.9560423158012576
2014-04-10 03:19:00,0.8942975664060799,0,0.8942975664060799
2014-04-10 03:24:00,0.9298468197846894,0,0.9298468197846894
2014-04-10 03:29:00,0.937906972405172,0,0.937906972405172
2014-04-10 03:34:00,0.9281054287864371,0,0.9281054287864371
2014-04-10 03:39:00,0.929598049642082,0,0.929598049642082
2014-04-10 03:44:00,0.9135274984296384,0,0.9135274984296384
2014-04-10 03:49:00,0.9062882872797609,0,0.9062882872797609
2014-04-10 03:54:00,0.9404444278597685,0,0.9404444278597685
2014-04-10 03:59:00,0.9498230622360704,0,0.9498230622360704
2014-04-10 04:04:00,0.9358173032072692,0,0.9358173032072692
2014-04-10 04:09:00,0.9452208145978319,0,0.9452208145978319
2014-04-10 04:14:00,0.9143484399002434,0,0.9143484399002434
2014-04-10 04:19:00,0.9512659290631941,0,0.9512659290631941
2014-04-10 04:24:00,0.9171595425117078,0,0.9171595425117078
2014-04-10 04:29:00,0.941862417672631,0,0.941862417672631
2014-04-10 04:34:00,0.8459864047117066,0,0.8459864047117066
2014-04-10 04:39:00,0.9247967858897576,0,0.9247967858897576
2014-04-10 04:44:00,0.9596743598833268,0,0.9596743598833268
2014-04-10 04:49:00,0.9362650894639626,0,0.9362650894639626
2014-04-10 04:54:00,0.9376333252483038,0,0.9376333252483038
2014-04-10 04:59:00,0.9332300937241512,0,0.9332300937241512
2014-04-10 05:04:00,0.8971833000603269,0,0.8971833000603269
2014-04-10 05:09:00,0.8814112730190123,0,0.8814112730190123
2014-04-10 05:14:00,0.9430813913714076,0,0.9430813913714076
2014-04-10 05:19:00,0.9111393050606066,0,0.9111393050606066
2014-04-10 05:24:00,0.9239012133763708,0,0.9239012133763708
2014-04-10 05:29:00,0.9147215951141544,0,0.9147215951141544
2014-04-10 05:34:00,0.9270108401589642,0,0.9270108401589642
2014-04-10 05:39:00,0.931662841825724,0,0.931662841825724
2014-04-10 05:44:00,0.929324402485214,0,0.929324402485214
2014-04-10 05:49:00,0.921090110764906,0,0.921090110764906
2014-04-10 05:54:00,0.9067858275649756,0,0.9067858275649756
2014-04-10 05:59:00,0.9244236306758464,0,0.9244236306758464
2014-04-10 06:04:00,0.9057658699802852,0,0.9057658699802852
2014-04-10 06:09:00,0.9332052167098904,0,0.9332052167098904
2014-04-10 06:14:00,0.9244236306758464,0,0.9244236306758464
2014-04-10 06:19:00,0.9214135119502956,0,0.9214135119502956
2014-04-10 06:24:00,0.8879539277695891,0,0.8879539277695891
2014-04-10 06:29:00,0.9443501190987056,0,0.9443501190987056
2014-04-10 06:34:00,0.8933273628499109,0,0.8933273628499109
2014-04-10 06:39:00,0.92753325745844,0,0.92753325745844
2014-04-10 06:44:00,0.9007655901138746,0,0.9007655901138746
2014-04-10 06:49:00,0.9005914510140494,0,0.9005914510140494
2014-04-10 06:54:00,0.9052434526808092,0,0.9052434526808092
2014-04-10 06:59:00,0.9493006449365948,0,0.9493006449365948
2014-04-10 07:04:00,0.9576344447139457,0,0.9576344447139457
2014-04-10 07:09:00,0.9053180837235916,0,0.9053180837235916
2014-04-10 07:14:00,0.94831178361973,0,0.94831178361973
2014-04-10 07:19:00,0.9095720531621796,0,0.9095720531621796
2014-04-10 07:24:00,0.916637125212232,0,0.916637125212232
2014-04-10 07:29:00,0.9503454795355464,0,0.9503454795355464
2014-04-10 07:34:00,0.9311653015405092,0,0.9311653015405092
2014-04-10 07:39:00,0.9342749283231028,0,0.9342749283231028
2014-04-10 07:44:00,0.9451461835550498,0,0.9451461835550498
2014-04-10 07:49:00,0.942558974071932,0,0.942558974071932
2014-04-10 07:54:00,0.9295234185993,0,0.9295234185993
2014-04-10 07:59:00,0.8627783893377118,0,0.8627783893377118
2014-04-10 08:04:00,0.9000192796860521,0,0.9000192796860521
2014-04-10 08:09:00,0.8814112730190123,0,0.8814112730190123
2014-04-10 08:14:00,0.9019845638126512,0,0.9019845638126512
2014-04-10 08:19:00,0.9106168877611309,0,0.9106168877611309
2014-04-10 08:24:00,0.8798440211205851,0,0.8798440211205851
2014-04-10 08:29:00,0.8585990509419058,0,0.8585990509419058
2014-04-10 08:34:00,0.9197467519948256,0,0.9197467519948256
2014-04-10 08:39:00,0.942558974071932,0,0.942558974071932
2014-04-10 08:44:00,0.9134777444011172,0,0.9134777444011172
2014-04-10 08:49:00,0.9195228588664788,0,0.9195228588664788
2014-04-10 08:54:00,0.9407180750166366,0,0.9407180750166366
2014-04-10 08:59:00,0.9228563787774192,0,0.9228563787774192
2014-04-10 09:04:00,0.8974569472171949,0,0.8974569472171949
2014-04-10 09:09:00,0.9156171676275414,0,0.9156171676275414
2014-04-10 09:14:00,0.9332300937241512,0,0.9332300937241512
2014-04-10 09:19:00,0.9334788638667588,0,0.9334788638667588
2014-04-10 09:24:00,0.9298716967989504,0,0.9298716967989504
2014-04-10 09:29:00,0.9390761920754273,0,0.9390761920754273
2014-04-10 09:34:00,0.93651385960657,0,0.93651385960657
2014-04-10 09:39:00,0.9446237662555741,0,0.9446237662555741
2014-04-10 09:44:00,0.9427579901860179,0,0.9427579901860179
2014-04-10 09:49:00,0.970545615115274,0,0.970545615115274
2014-04-10 09:54:00,0.9342749283231028,0,0.9342749283231028
2014-04-10 09:59:00,0.9073082448644514,0,0.9073082448644514
2014-04-10 10:04:00,0.8965364976895474,0,0.8965364976895474
2014-04-10 10:09:00,0.9617391520669691,0,0.9617391520669691
2014-04-10 10:14:00,0.8296422063423952,0,0.8296422063423952
2014-04-10 10:19:00,0.9081043093207954,0,0.9081043093207954
2014-04-10 10:24:00,0.8941731813347763,0,0.8941731813347763
2014-04-10 10:29:00,0.8896953187678416,0,0.8896953187678416
2014-04-10 10:34:00,0.8870086012276804,0,0.8870086012276804
2014-04-10 10:39:00,0.8782767692221582,0,0.8782767692221582
2014-04-10 10:44:00,0.908552095577489,0,0.908552095577489
2014-04-10 10:49:00,0.9373845551056964,0,0.9373845551056964
2014-04-10 10:54:00,0.9071403250181914,0,0.9071403250181914
2014-04-10 10:59:00,0.9332300937241512,0,0.9332300937241512
2014-04-10 11:04:00,0.9328320614959792,0,0.9328320614959792
2014-04-10 11:09:00,0.9377328333053468,0,0.9377328333053468
2014-04-10 11:14:00,0.9296975576991252,0,0.9296975576991252
2014-04-10 11:19:00,0.9539526466033548,0,0.9539526466033548
2014-04-10 11:24:00,0.942558974071932,0,0.942558974071932
2014-04-10 11:29:00,0.9696002885733654,0,0.9696002885733654
2014-04-10 11:34:00,0.9265381768880101,0,0.9265381768880101
2014-04-10 11:39:00,0.9010889912992642,0,0.9010889912992642
2014-04-10 11:44:00,0.9323345212107644,0,0.9323345212107644
2014-04-10 11:49:00,0.9307423922980764,0,0.9307423922980764
2014-04-10 11:54:00,0.9285532150431304,0,0.9285532150431304
2014-04-10 11:59:00,0.9556691605873464,0,0.9556691605873464
2014-04-10 12:04:00,0.9399717645888142,0,0.9399717645888142
2014-04-10 12:09:00,0.8886256071546293,0,0.8886256071546293
2014-04-10 12:14:00,0.8710375580722802,0,0.8710375580722802
2014-04-10 12:19:00,0.9171595425117078,0,0.9171595425117078
2014-04-10 12:24:00,0.9638288212648718,0,0.9638288212648718
2014-04-10 12:29:00,0.907059474721844,0,0.907059474721844
2014-04-10 12:34:00,0.9461910181540012,0,0.9461910181540012
2014-04-10 12:39:00,0.918104869053616,0,0.918104869053616
2014-04-10 12:44:00,0.8751920194538253,0,0.8751920194538253
2014-04-10 12:49:00,0.9083530794634028,0,0.9083530794634028
2014-04-10 12:54:00,0.9207915865937769,0,0.9207915865937769
2014-04-10 12:59:00,0.8812122569049263,0,0.8812122569049263
2014-04-10 13:04:00,0.894770229677034,0,0.894770229677034
2014-04-10 13:09:00,0.8620072018956285,0,0.8620072018956285
2014-04-10 13:14:00,0.9057658699802852,0,0.9057658699802852
2014-04-10 13:19:00,0.9394493472893384,0,0.9394493472893384
2014-04-10 13:24:00,0.9378820953909112,0,0.9378820953909112
2014-04-10 13:29:00,0.9078306621639272,0,0.9078306621639272
2014-04-10 13:34:00,0.918726794410135,0,0.918726794410135
2014-04-10 13:39:00,0.9193984737951751,0,0.9193984737951751
2014-04-10 13:44:00,0.9337773880378876,0,0.9337773880378876
2014-04-10 13:49:00,0.9676101274325056,0,0.9676101274325056
2014-04-10 13:54:00,0.9512908060774548,0,0.9512908060774548
2014-04-10 13:59:00,0.9635551741080036,0,0.9635551741080036
2014-04-10 14:04:00,0.8778787369939859,0,0.8778787369939859
2014-04-10 14:09:00,0.8958648183045073,0,0.8958648183045073
2014-04-10 14:14:00,0.8648183045070931,0,0.8648183045070931
2014-04-10 14:19:00,0.8720823926712317,0,0.8720823926712317
2014-04-10 14:24:00,0.8845208998016059,0,0.8845208998016059
2014-04-10 14:29:00,0.9301204669415576,0,0.9301204669415576
2014-04-10 14:34:00,0.9549974812023062,0,0.9549974812023062
2014-04-10 14:39:00,0.8808888557195366,0,0.8808888557195366
2014-04-10 14:44:00,0.8747939872256533,0,0.8747939872256533
2014-04-10 14:49:00,0.8549172528313151,0,0.8549172528313151
2014-04-10 14:54:00,0.8477277957099592,0,0.8477277957099592
2014-04-10 14:59:00,0.8487477532946496,0,0.8487477532946496
2014-04-10 15:04:00,0.8856901194718609,0,0.8856901194718609
2014-04-10 15:09:00,0.8928049455504351,0,0.8928049455504351
2014-04-10 15:14:00,0.8881280668694144,0,0.8881280668694144
2014-04-10 15:19:00,0.8938000261208651,0,0.8938000261208651
2014-04-10 15:24:00,0.9114627062459963,0,0.9114627062459963
2014-04-10 15:29:00,0.8705151407728045,0,0.8705151407728045
2014-04-10 15:34:00,0.8861130287142938,0,0.8861130287142938
2014-04-10 15:39:00,0.9177068368254444,0,0.9177068368254444
2014-04-10 15:44:00,0.9363397205067449,0,0.9363397205067449
2014-04-10 15:49:00,0.9463402802395656,0,0.9463402802395656
2014-04-10 15:54:00,0.8808888557195366,0,0.8808888557195366
2014-04-10 15:59:00,0.9363397205067449,0,0.9363397205067449
2014-04-10 16:04:00,0.9399717645888142,0,0.9399717645888142
2014-04-10 16:09:00,0.9352948859077934,0,0.9352948859077934
2014-04-10 16:14:00,0.9047210353813336,0,0.9047210353813336
2014-04-10 16:19:00,0.9132040972442488,0,0.9132040972442488
2014-04-10 16:24:00,0.9264884228594884,0,0.9264884228594884
2014-04-10 16:29:00,0.9648487788495624,0,0.9648487788495624
2014-04-10 16:34:00,0.8948697377340772,0,0.8948697377340772
2014-04-10 16:39:00,0.8798440211205851,0,0.8798440211205851
2014-04-10 16:44:00,0.9524102717191884,0,0.9524102717191884
2014-04-10 16:49:00,0.9565647331007334,0,0.9565647331007334
2014-04-10 16:54:00,0.9239012133763708,0,0.9239012133763708
2014-04-10 16:59:00,0.9332300937241512,0,0.9332300937241512
2014-04-10 17:04:00,0.9524102717191884,0,0.9524102717191884
2014-04-10 17:09:00,0.9513654371202368,0,0.9513654371202368
2014-04-10 17:14:00,0.955519898501782,0,0.955519898501782
2014-04-10 17:19:00,0.9239012133763708,0,0.9239012133763708
2014-04-10 17:24:00,0.9143981939287648,0,0.9143981939287648
2014-04-10 17:29:00,0.9394493472893384,0,0.9394493472893384
2014-04-10 17:34:00,0.914970365256762,0,0.914970365256762
2014-04-10 17:39:00,0.9452208145978319,0,0.9452208145978319
2014-04-10 17:44:00,0.937906972405172,0,0.937906972405172
2014-04-10 17:49:00,0.9643263615500868,0,0.9643263615500868
2014-04-10 17:54:00,0.9342749283231028,0,0.9342749283231028
2014-04-10 17:59:00,0.9420614337867168,0,0.9420614337867168
2014-04-10 18:04:00,0.955519898501782,0,0.955519898501782
2014-04-10 18:09:00,0.9866161663277174,0,0.9866161663277174
2014-04-10 18:14:00,0.9583061240989856,0,0.9583061240989856
2014-04-10 18:19:00,0.929598049642082,0,0.929598049642082
2014-04-10 18:24:00,0.9221349453638572,0,0.9221349453638572
2014-04-10 18:29:00,0.9560423158012576,0,0.9560423158012576
2014-04-10 18:34:00,0.9254933422890584,0,0.9254933422890584
2014-04-10 18:39:00,0.9100695934473944,0,0.9100695934473944
2014-04-10 18:44:00,0.9237021972622844,0,0.9237021972622844
2014-04-10 18:49:00,0.9403946738312471,0,0.9403946738312471
2014-04-10 18:54:00,0.9596743598833268,0,0.9596743598833268
2014-04-10 18:59:00,0.9311653015405092,0,0.9311653015405092
2014-04-10 19:04:00,0.950743511763718,0,0.950743511763718
2014-04-10 19:09:00,0.9539526466033548,0,0.9539526466033548
2014-04-10 19:14:00,0.9259660055600129,0,0.9259660055600129
2014-04-10 19:19:00,0.9643263615500868,0,0.9643263615500868
2014-04-10 19:24:00,0.9285780920573914,0,0.9285780920573914
2014-04-10 19:29:00,0.924946047975322,0,0.924946047975322
2014-04-10 19:34:00,0.9257172354174052,0,0.9257172354174052
2014-04-10 19:39:00,0.956191577886822,0,0.956191577886822
2014-04-10 19:44:00,0.9405190589025506,0,0.9405190589025506
2014-04-10 19:49:00,0.9047210353813336,0,0.9047210353813336
2014-04-10 19:54:00,0.92753325745844,0,0.92753325745844
2014-04-10 19:59:00,0.9503454795355464,0,0.9503454795355464
2014-04-10 20:04:00,0.9236026892052416,0,0.9236026892052416
2014-04-10 20:09:00,0.9403946738312471,0,0.9403946738312471
2014-04-10 20:14:00,0.8808391016910151,0,0.8808391016910151
2014-04-10 20:19:00,0.913054835158684,0,0.913054835158684
2014-04-10 20:24:00,0.9381308655335188,0,0.9381308655335188
2014-04-10 20:29:00,0.8802171763344964,0,0.8802171763344964
2014-04-10 20:34:00,0.8904913832241854,0,0.8904913832241854
2014-04-10 20:39:00,0.9487782276371189,0,0.9487782276371189
2014-04-10 20:44:00,0.9264884228594884,0,0.9264884228594884
2014-04-10 20:49:00,0.9368621378062206,0,0.9368621378062206
2014-04-10 20:54:00,0.9192492117096108,0,0.9192492117096108
2014-04-10 20:59:00,0.9537287534750079,0,0.9537287534750079
2014-04-10 21:04:00,0.930468745141208,0,0.930468745141208
2014-04-10 21:09:00,0.9301204669415576,0,0.9301204669415576
2014-04-10 21:14:00,0.9566144871292548,0,0.9566144871292548
2014-04-10 21:19:00,0.92753325745844,0,0.92753325745844
2014-04-10 21:24:00,0.9524102717191884,0,0.9524102717191884
2014-04-10 21:29:00,0.9489026127084228,0,0.9489026127084228
2014-04-10 21:34:00,0.91623909298406,0,0.91623909298406
2014-04-10 21:39:00,0.9332300937241512,0,0.9332300937241512
2014-04-10 21:44:00,0.9627591096516596,0,0.9627591096516596
2014-04-10 21:49:00,0.9291253863711278,0,0.9291253863711278
2014-04-10 21:54:00,0.9096466842049618,0,0.9096466842049618
2014-04-10 21:59:00,0.8928049455504351,0,0.8928049455504351
2014-04-10 22:04:00,0.9197467519948256,0,0.9197467519948256
2014-04-10 22:09:00,0.9357924261930084,0,0.9357924261930084
2014-04-10 22:14:00,0.9088754967628786,0,0.9088754967628786
2014-04-10 22:19:00,0.9487782276371189,0,0.9487782276371189
2014-04-10 22:24:00,0.9565647331007334,0,0.9565647331007334
2014-04-10 22:29:00,0.9498230622360704,0,0.9498230622360704
2014-04-10 22:34:00,0.9467134354534771,0,0.9467134354534771
2014-04-10 22:39:00,0.9558184226729108,0,0.9558184226729108
2014-04-10 22:44:00,0.9419868027439346,0,0.9419868027439346
2014-04-10 22:49:00,0.9487782276371189,0,0.9487782276371189
2014-04-10 22:54:00,0.9280556747579156,0,0.9280556747579156
2014-04-10 22:59:00,0.9376830792768251,0,0.9376830792768251
2014-04-10 23:04:00,0.9313145636260736,0,0.9313145636260736
2014-04-10 23:09:00,0.9229310098202016,0,0.9229310098202016
2014-04-10 23:14:00,0.9166122481979714,0,0.9166122481979714
2014-04-10 23:19:00,0.9174083126543152,0,0.9174083126543152
2014-04-10 23:24:00,0.9141991778146789,0,0.9141991778146789
2014-04-10 23:29:00,0.9347973456225784,0,0.9347973456225784
2014-04-10 23:34:00,0.955992561772736,0,0.955992561772736
2014-04-10 23:39:00,0.9508430198207612,0,0.9508430198207612
2014-04-10 23:44:00,0.942558974071932,0,0.942558974071932
2014-04-10 23:49:00,0.9493752759793768,0,0.9493752759793768
2014-04-10 23:54:00,0.9291751403996492,0,0.9291751403996492
2014-04-10 23:59:00,0.9240255984476744,0,0.9240255984476744
2014-04-11 00:04:00,0.9335286178952804,0,0.9335286178952804
2014-04-11 00:09:00,0.9575349366569024,0,0.9575349366569024
2014-04-11 00:14:00,0.95146494517728,0,0.95146494517728
2014-04-11 00:19:00,0.9310160394549448,0,0.9310160394549448
2014-04-11 00:24:00,0.9121592626452972,0,0.9121592626452972
2014-04-11 00:29:00,0.9351456238222288,0,0.9351456238222288
2014-04-11 00:34:00,0.9586295252843756,0,0.9586295252843756
2014-04-11 00:39:00,0.9285532150431304,0,0.9285532150431304
2014-04-11 00:44:00,0.9073082448644514,0,0.9073082448644514
2014-04-11 00:49:00,0.9575846906854241,0,0.9575846906854241
2014-04-11 00:54:00,0.9244236306758464,0,0.9244236306758464
2014-04-11 00:59:00,0.9612167347674933,0,0.9612167347674933
2014-04-11 01:04:00,0.9501215864071992,0,0.9501215864071992
2014-04-11 01:09:00,0.9335783719238016,0,0.9335783719238016
2014-04-11 01:14:00,0.9079301702209702,0,0.9079301702209702
2014-04-11 01:19:00,0.9073082448644514,0,0.9073082448644514
2014-04-11 01:24:00,0.9581071079848996,0,0.9581071079848996
2014-04-11 01:29:00,0.9741776591973432,0,0.9741776591973432
2014-04-11 01:34:00,0.931662841825724,0,0.931662841825724
2014-04-11 01:39:00,0.9288766162285204,0,0.9288766162285204
2014-04-11 01:44:00,0.8835258192311757,0,0.8835258192311757
2014-04-11 01:49:00,0.9404941818882898,0,0.9404941818882898
2014-04-11 01:54:00,0.9677096354895488,0,0.9677096354895488
2014-04-11 01:59:00,0.9303194830556438,0,0.9303194830556438
2014-04-11 02:04:00,0.9518878544197126,0,0.9518878544197126
2014-04-11 02:09:00,0.9601470231542812,0,0.9601470231542812
2014-04-11 02:14:00,0.9747000764968191,0,0.9747000764968191
2014-04-11 02:19:00,0.9477582700524284,0,0.9477582700524284
2014-04-11 02:24:00,0.9334291098382372,0,0.9334291098382372
2014-04-11 02:29:00,0.961913291166794,0,0.961913291166794
2014-04-11 02:34:00,0.9658936134485141,0,0.9658936134485141
2014-04-11 02:39:00,0.9632815269511352,0,0.9632815269511352
2014-04-11 02:44:00,0.9384045126903868,0,0.9384045126903868
2014-04-11 02:49:00,0.9673862343041589,0,0.9673862343041589
2014-04-11 02:54:00,0.9493006449365948,0,0.9493006449365948
2014-04-11 02:59:00,0.9560423158012576,0,0.9560423158012576
2014-04-11 03:04:00,0.9702470909441451,0,0.9702470909441451
2014-04-11 03:09:00,0.961913291166794,0,0.961913291166794
2014-04-11 03:14:00,0.9509176508635436,0,0.9509176508635436
2014-04-11 03:19:00,0.9347973456225784,0,0.9347973456225784
2014-04-11 03:24:00,0.9606943174680176,0,0.9606943174680176
2014-04-11 03:29:00,0.9575846906854241,0,0.9575846906854241
2014-04-11 03:34:00,0.9364392285637878,0,0.9364392285637878
2014-04-11 03:39:00,0.912507540844948,0,0.912507540844948
2014-04-11 03:44:00,0.972809423413002,0,0.972809423413002
2014-04-11 03:49:00,0.921289126878992,0,0.921289126878992
2014-04-11 03:54:00,0.9364143515495272,0,0.9364143515495272
2014-04-11 03:59:00,0.9472109757386918,0,0.9472109757386918
2014-04-11 04:04:00,0.925468465274798,0,0.925468465274798
2014-04-11 04:09:00,0.9591519425838512,0,0.9591519425838512
2014-04-11 04:14:00,0.931662841825724,0,0.931662841825724
2014-04-11 04:19:00,0.9556691605873464,0,0.9556691605873464
2014-04-11 04:24:00,0.9582066160419428,0,0.9582066160419428
2014-04-11 04:29:00,0.9537785075035295,0,0.9537785075035295
2014-04-11 04:34:00,0.9352948859077934,0,0.9352948859077934
2014-04-11 04:39:00,0.9866161663277174,0,0.9866161663277174
2014-04-11 04:44:00,0.9275083804441792,0,0.9275083804441792
2014-04-11 04:49:00,0.9213140038932528,0,0.9213140038932528
2014-04-11 04:54:00,0.9783072435646274,0,0.9783072435646274
2014-04-11 04:59:00,0.9783072435646274,0,0.9783072435646274
2014-04-11 05:04:00,0.9660179985198178,0,0.9660179985198178
2014-04-11 05:09:00,0.9560423158012576,0,0.9560423158012576
2014-04-11 05:14:00,0.9689037321740644,0,0.9689037321740644
2014-04-11 05:19:00,0.942558974071932,0,0.942558974071932
2014-04-11 05:24:00,0.9337525110236271,0,0.9337525110236271
2014-04-11 05:29:00,0.9622615693664448,0,0.9622615693664448
2014-04-11 05:34:00,0.9809193300620059,0,0.9809193300620059
2014-04-11 05:39:00,0.9763419594380284,0,0.9763419594380284
2014-04-11 05:44:00,0.9228563787774192,0,0.9228563787774192
2014-04-11 05:49:00,0.9741776591973432,0,0.9741776591973432
2014-04-11 05:54:00,0.9757200340815096,0,0.9757200340815096
2014-04-11 05:59:00,0.9469373285818236,0,0.9469373285818236
2014-04-11 06:04:00,0.9192492117096108,0,0.9192492117096108
2014-04-11 06:09:00,0.9726104072989158,0,0.9726104072989158
2014-04-11 06:14:00,0.9539526466033548,0,0.9539526466033548
2014-04-11 06:19:00,0.9210403567363844,0,0.9210403567363844
2014-04-11 06:24:00,0.9316877188399848,0,0.9316877188399848
2014-04-11 06:29:00,0.9575846906854241,0,0.9575846906854241
2014-04-11 06:34:00,0.9429072522715825,0,0.9429072522715825
2014-04-11 06:39:00,0.9308916543836412,0,0.9308916543836412
2014-04-11 06:44:00,0.9376084482340432,0,0.9376084482340432
2014-04-11 06:49:00,0.9361655814069196,0,0.9361655814069196
2014-04-11 06:54:00,0.9436038086708834,0,0.9436038086708834
2014-04-11 06:59:00,0.9142489318432,0,0.9142489318432
2014-04-11 07:04:00,0.9233787960768948,0,0.9233787960768948
2014-04-11 07:09:00,0.9244236306758464,0,0.9244236306758464
2014-04-11 07:14:00,0.8684503485891624,0,0.8684503485891624
2014-04-11 07:19:00,0.911985123545472,0,0.911985123545472
2014-04-11 07:24:00,0.9430813913714076,0,0.9430813913714076
2014-04-11 07:29:00,0.9606943174680176,0,0.9606943174680176
2014-04-11 07:34:00,0.9721128670137013,0,0.9721128670137013
2014-04-11 07:39:00,0.9451461835550498,0,0.9451461835550498
2014-04-11 07:44:00,0.9363397205067449,0,0.9363397205067449
2014-04-11 07:49:00,0.9358173032072692,0,0.9358173032072692
2014-04-11 07:54:00,0.9530321970757072,0,0.9530321970757072
2014-04-11 07:59:00,0.902805505283256,0,0.902805505283256
2014-04-11 08:04:00,0.9158410607558882,0,0.9158410607558882
2014-04-11 08:09:00,0.8916854799087014,0,0.8916854799087014
2014-04-11 08:14:00,0.9173834356400544,0,0.9173834356400544
2014-04-11 08:19:00,0.9452456916120928,0,0.9452456916120928
2014-04-11 08:24:00,0.9430813913714076,0,0.9430813913714076
2014-04-11 08:29:00,0.9244236306758464,0,0.9244236306758464
2014-04-11 08:34:00,0.9026562431976914,0,0.9026562431976914
2014-04-11 08:39:00,0.956291085943865,0,0.956291085943865
2014-04-11 08:44:00,0.970943647343446,0,0.970943647343446
2014-04-11 08:49:00,0.9669135710332046,0,0.9669135710332046
2014-04-11 08:54:00,0.9477333930381676,0,0.9477333930381676
2014-04-11 08:59:00,0.9228563787774192,0,0.9228563787774192
2014-04-11 09:04:00,0.916637125212232,0,0.916637125212232
2014-04-11 09:09:00,0.9665404158192934,0,0.9665404158192934
2014-04-11 09:14:00,0.953430229303879,0,0.953430229303879
2014-04-11 09:19:00,0.9252196951321904,0,0.9252196951321904
2014-04-11 09:24:00,0.903875216896468,0,0.903875216896468
2014-04-11 09:29:00,0.9285532150431304,0,0.9285532150431304
2014-04-11 09:34:00,0.9207169555509948,0,0.9207169555509948
2014-04-11 09:39:00,0.9627093556231382,0,0.9627093556231382
2014-04-11 09:44:00,0.955519898501782,0,0.955519898501782
2014-04-11 09:49:00,0.9661921376196432,0,0.9661921376196432
2014-04-11 09:54:00,0.9393995932608171,0,0.9393995932608171
2014-04-11 09:59:00,0.9255182193033192,0,0.9255182193033192
2014-04-11 10:04:00,0.9164878631266676,0,0.9164878631266676
2014-04-11 10:09:00,0.9632815269511352,0,0.9632815269511352
2014-04-11 10:14:00,0.9312896866118128,0,0.9312896866118128
2014-04-11 10:19:00,0.8793216038211095,0,0.8793216038211095
2014-04-11 10:24:00,0.9373845551056964,0,0.9373845551056964
2014-04-11 10:29:00,0.9428574982430609,0,0.9428574982430609
2014-04-11 10:34:00,0.9424594660148892,0,0.9424594660148892
2014-04-11 10:39:00,0.9311653015405092,0,0.9311653015405092
2014-04-11 10:44:00,0.9233787960768948,0,0.9233787960768948
2014-04-11 10:49:00,0.9207915865937769,0,0.9207915865937769
2014-04-11 10:54:00,0.9290756323426064,0,0.9290756323426064
2014-04-11 10:59:00,0.9456686008545256,0,0.9456686008545256
2014-04-11 11:04:00,0.9322598901679824,0,0.9322598901679824
2014-04-11 11:09:00,0.9285532150431304,0,0.9285532150431304
2014-04-11 11:14:00,0.9502957255070248,0,0.9502957255070248
2014-04-11 11:19:00,0.9197467519948256,0,0.9197467519948256
2014-04-11 11:24:00,0.9570622733859484,0,0.9570622733859484
2014-04-11 11:29:00,0.9715904497142254,0,0.9715904497142254
2014-04-11 11:34:00,0.9395239783321206,0,0.9395239783321206
2014-04-11 11:39:00,0.9288019851857379,0,0.9288019851857379
2014-04-11 11:44:00,0.937906972405172,0,0.937906972405172
2014-04-11 11:49:00,0.9633561579939176,0,0.9633561579939176
2014-04-11 11:54:00,0.9326081683676326,0,0.9326081683676326
2014-04-11 11:59:00,0.9246972778327144,0,0.9246972778327144
2014-04-11 12:04:00,0.9612167347674933,0,0.9612167347674933
2014-04-11 12:09:00,0.9542014167459624,0,0.9542014167459624
2014-04-11 12:14:00,0.960967964624886,0,0.960967964624886
2014-04-11 12:19:00,0.9429818833143646,0,0.9429818833143646
2014-04-11 12:24:00,0.8554894241593125,0,0.8554894241593125
2014-04-11 12:29:00,0.90161140859874,0,0.90161140859874
2014-04-11 12:34:00,0.9287771081714774,0,0.9287771081714774
2014-04-11 12:39:00,0.9055419768519384,0,0.9055419768519384
2014-04-11 12:44:00,0.934250051308842,0,0.934250051308842
2014-04-11 12:49:00,0.8948946147483379,0,0.8948946147483379
2014-04-11 12:54:00,0.91457233302859,0,0.91457233302859
2014-04-11 12:59:00,0.9362899664782236,0,0.9362899664782236
2014-04-11 13:04:00,0.9052434526808092,0,0.9052434526808092
2014-04-11 13:09:00,0.9216125280643818,0,0.9216125280643818
2014-04-11 13:14:00,0.9008650981709176,0,0.9008650981709176
2014-04-11 13:19:00,0.8749183722969575,0,0.8749183722969575
2014-04-11 13:24:00,0.9002680498286596,0,0.9002680498286596
2014-04-11 13:29:00,0.9239012133763708,0,0.9239012133763708
2014-04-11 13:34:00,0.8596438855408575,0,0.8596438855408575
2014-04-11 13:39:00,0.8938497801493865,0,0.8938497801493865
2014-04-11 13:44:00,0.91922433469535,0,0.91922433469535
2014-04-11 13:49:00,0.8777792289369429,0,0.8777792289369429
2014-04-11 13:54:00,0.904198618081858,0,0.904198618081858
2014-04-11 13:59:00,0.9067858275649756,0,0.9067858275649756
2014-04-11 14:04:00,0.8679279312896867,0,0.8679279312896867
2014-04-11 14:09:00,0.9052434526808092,0,0.9052434526808092
2014-04-11 14:14:00,0.925468465274798,0,0.925468465274798
2014-04-11 14:19:00,0.9056912389375028,0,0.9056912389375028
2014-04-11 14:24:00,0.9225578546062904,0,0.9225578546062904
2014-04-11 14:29:00,0.8785006623505047,0,0.8785006623505047
2014-04-11 14:34:00,0.8689727658886381,0,0.8689727658886381
2014-04-11 14:39:00,0.8807147166197111,0,0.8807147166197111
2014-04-11 14:44:00,0.8746696021543495,0,0.8746696021543495
2014-04-11 14:49:00,0.9183038851677022,0,0.9183038851677022
2014-04-11 14:54:00,0.8954419090620744,0,0.8954419090620744
2014-04-11 14:59:00,0.9140499157291142,0,0.9140499157291142
2014-04-11 15:04:00,0.924946047975322,0,0.924946047975322
2014-04-11 15:09:00,0.8967852678321547,0,0.8967852678321547
2014-04-11 15:14:00,0.8684503485891624,0,0.8684503485891624
2014-04-11 15:19:00,0.8834760652026544,0,0.8834760652026544
2014-04-11 15:24:00,0.9700231978157982,0,0.9700231978157982
2014-04-11 15:29:00,0.9332300937241512,0,0.9332300937241512
2014-04-11 15:34:00,0.9171595425117078,0,0.9171595425117078
2014-04-11 15:39:00,0.9429818833143646,0,0.9429818833143646
2014-04-11 15:44:00,0.9544253098743088,0,0.9544253098743088
2014-04-11 15:49:00,0.912507540844948,0,0.912507540844948
2014-04-11 15:54:00,0.918726794410135,0,0.918726794410135
2014-04-11 15:59:00,0.8881280668694144,0,0.8881280668694144
2014-04-11 16:04:00,0.8677040381613401,0,0.8677040381613401
2014-04-11 16:09:00,0.8788240635358946,0,0.8788240635358946
2014-04-11 16:14:00,0.8943721974488623,0,0.8943721974488623
2014-04-11 16:19:00,0.837627727920095,0,0.837627727920095
2014-04-11 16:24:00,0.8742964469404383,0,0.8742964469404383
2014-04-11 16:29:00,0.857429831271651,0,0.857429831271651
2014-04-11 16:34:00,0.9069102126362796,0,0.9069102126362796
2014-04-11 16:39:00,0.8502652511645553,0,0.8502652511645553
2014-04-11 16:44:00,0.8736247675553981,0,0.8736247675553981
2014-04-11 16:49:00,0.8876305265841995,0,0.8876305265841995
2014-04-11 16:54:00,0.9130299581444236,0,0.9130299581444236
2014-04-11 16:59:00,0.931662841825724,0,0.931662841825724
2014-04-11 17:04:00,0.8668830966907352,0,0.8668830966907352
2014-04-11 17:09:00,0.8959145723330286,0,0.8959145723330286
2014-04-11 17:14:00,0.8878792967268069,0,0.8878792967268069
2014-04-11 17:19:00,0.8928049455504351,0,0.8928049455504351
2014-04-11 17:24:00,0.8731023502559223,0,0.8731023502559223
2014-04-11 17:29:00,0.8699927234733288,0,0.8699927234733288
2014-04-11 17:34:00,0.8914864637946153,0,0.8914864637946153
2014-04-11 17:39:00,0.9197467519948256,0,0.9197467519948256
2014-04-11 17:44:00,0.9207915865937769,0,0.9207915865937769
2014-04-11 17:49:00,0.8907401533667929,0,0.8907401533667929
2014-04-11 17:54:00,0.91457233302859,0,0.91457233302859