timestamp,value,is_anomaly,anomaly_score,S(t)_reward_low_FP_rate,S(t)_reward_low_FN_rate,S(t)_standard,predicted_anomaly
2014-02-14 14:30:00,0.121673003802,0,0.5,0.0,0.0,0.0,0
2014-02-14 14:35:00,0.121673003802,0,0.5,0.0,0.0,0.0,0
2014-02-14 14:40:00,0.338403041825,0,0.5,0.0,0.0,0.0,0
2014-02-14 14:45:00,0.121673003802,0,0.5,0.0,0.0,0.0,0
2014-02-14 14:50:00,0.0969581749049,0,0.5,0.0,0.0,0.0,0
2014-02-14 14:55:00,0.123574144487,0,0.5,0.0,0.0,0.0,0
2014-02-14 15:00:00,0.153992395437,0,0.5,0.0,0.0,0.0,0
2014-02-14 15:05:00,0.153992395437,0,0.5,0.0,0.0,0.0,0
2014-02-14 15:10:00,0.401140684411,0,0.5,0.0,0.0,0.0,0
2014-02-14 15:15:00,0.150190114068,0,0.5,0.0,0.0,0.0,0
2014-02-14 15:20:00,0.0950570342205,0,0.5,0.0,0.0,0.0,0
2014-02-14 15:25:00,0.218631178707,0,0.5,0.0,0.0,0.0,0
2014-02-14 15:30:00,0.216730038023,0,0.5,0.0,0.0,0.0,0
2014-02-14 15:35:00,0.21102661597,0,0.5,0.0,0.0,0.0,0
2014-02-14 15:40:00,0.28897338403,0,0.5,0.0,0.0,0.0,0
2014-02-14 15:45:00,0.184410646388,0,0.5,0.0,0.0,0.0,0
2014-02-14 15:50:00,0.121673003802,0,0.5,0.0,0.0,0.0,0
2014-02-14 15:55:00,0.188212927757,0,0.5,0.0,0.0,0.0,0
2014-02-14 16:00:00,0.152091254753,0,0.5,0.0,0.0,0.0,0
2014-02-14 16:05:00,0.243346007605,0,0.5,0.0,0.0,0.0,0
2014-02-14 16:10:00,0.374524714829,0,0.5,0.0,0.0,0.0,0
2014-02-14 16:15:00,0.15969581749,0,0.5,0.0,0.0,0.0,0
2014-02-14 16:20:00,0.123574144487,0,0.5,0.0,0.0,0.0,0
2014-02-14 16:25:00,0.153992395437,0,0.5,0.0,0.0,0.0,0
2014-02-14 16:30:00,0.148288973384,0,0.5,0.0,0.0,0.0,0
2014-02-14 16:35:00,0.127376425856,0,0.5,0.0,0.0,0.0,0
2014-02-14 16:40:00,0.309885931559,0,0.5,0.0,0.0,0.0,0
2014-02-14 16:45:00,0.186311787072,0,0.5,0.0,0.0,0.0,0
2014-02-14 16:50:00,0.121673003802,0,0.5,0.0,0.0,0.0,0
2014-02-14 16:55:00,0.153992395437,0,0.5,0.0,0.0,0.0,0
2014-02-14 17:00:00,0.184410646388,0,0.5,0.0,0.0,0.0,0
2014-02-14 17:05:00,0.186311787072,0,0.5,0.0,0.0,0.0,0
2014-02-14 17:10:00,0.366920152091,0,0.5,0.0,0.0,0.0,0
2014-02-14 17:15:00,0.127376425856,0,0.5,0.0,0.0,0.0,0
2014-02-14 17:20:00,0.148288973384,0,0.5,0.0,0.0,0.0,0
2014-02-14 17:25:00,0.15969581749,0,0.5,0.0,0.0,0.0,0
2014-02-14 17:30:00,0.152091254753,0,0.5,0.0,0.0,0.0,0
2014-02-14 17:35:00,0.121673003802,0,0.5,0.0,0.0,0.0,0
2014-02-14 17:40:00,0.376425855513,0,0.5,0.0,0.0,0.0,0
2014-02-14 17:45:00,0.0912547528517,0,0.5,0.0,0.0,0.0,0
2014-02-14 17:50:00,0.184410646388,0,0.5,0.0,0.0,0.0,0
2014-02-14 17:55:00,0.121673003802,0,0.5,0.0,0.0,0.0,0
2014-02-14 18:00:00,0.152091254753,0,0.5,0.0,0.0,0.0,0
2014-02-14 18:05:00,0.150190114068,0,0.5,0.0,0.0,0.0,0
2014-02-14 18:10:00,0.347908745247,0,0.5,0.0,0.0,0.0,0
2014-02-14 18:15:00,0.117870722433,0,0.5,0.0,0.0,0.0,0
2014-02-14 18:20:00,0.192015209125,0,0.5,0.0,0.0,0.0,0
2014-02-14 18:25:00,0.186311787072,0,0.5,0.0,0.0,0.0,0
2014-02-14 18:30:00,0.243346007605,0,0.5,0.0,0.0,0.0,0
2014-02-14 18:35:00,0.127376425856,0,0.5,0.0,0.0,0.0,0
2014-02-14 18:40:00,0.368821292776,0,0.5,0.0,0.0,0.0,0
2014-02-14 18:45:00,0.0931558935361,0,0.5,0.0,0.0,0.0,0
2014-02-14 18:50:00,0.153992395437,0,0.5,0.0,0.0,0.0,0
2014-02-14 18:55:00,0.148288973384,0,0.5,0.0,0.0,0.0,0
2014-02-14 19:00:00,0.216730038023,0,0.5,0.0,0.0,0.0,0
2014-02-14 19:05:00,0.161596958175,0,0.5,0.0,0.0,0.0,0
2014-02-14 19:10:00,0.374524714829,0,0.5,0.0,0.0,0.0,0
2014-02-14 19:15:00,0.178707224335,0,0.5,0.0,0.0,0.0,0
2014-02-14 19:20:00,0.184410646388,0,0.5,0.0,0.0,0.0,0
2014-02-14 19:25:00,0.222433460076,0,0.5,0.0,0.0,0.0,0
2014-02-14 19:30:00,0.184410646388,0,0.5,0.0,0.0,0.0,0
2014-02-14 19:35:00,0.152091254753,0,0.5,0.0,0.0,0.0,0
2014-02-14 19:40:00,0.406844106464,0,0.5,0.0,0.0,0.0,0
2014-02-14 19:45:00,0.214828897338,0,0.5,0.0,0.0,0.0,0
2014-02-14 19:50:00,0.153992395437,0,0.5,0.0,0.0,0.0,0
2014-02-14 19:55:00,0.332699619772,0,0.5,0.0,0.0,0.0,0
2014-02-14 20:00:00,0.0931558935361,0,0.5,0.0,0.0,0.0,0
2014-02-14 20:05:00,0.249049429658,0,0.5,0.0,0.0,0.0,0
2014-02-14 20:10:00,0.344106463878,0,0.5,0.0,0.0,0.0,0
2014-02-14 20:15:00,0.214828897338,0,0.5,0.0,0.0,0.0,0
2014-02-14 20:20:00,0.148288973384,0,0.5,0.0,0.0,0.0,0
2014-02-14 20:25:00,0.220532319392,0,0.5,0.0,0.0,0.0,0
2014-02-14 20:30:00,0.153992395437,0,0.5,0.0,0.0,0.0,0
2014-02-14 20:35:00,0.21102661597,0,0.5,0.0,0.0,0.0,0
2014-02-14 20:40:00,0.285171102662,0,0.5,0.0,0.0,0.0,0
2014-02-14 20:45:00,0.214828897338,0,0.5,0.0,0.0,0.0,0
2014-02-14 20:50:00,0.121673003802,0,0.5,0.0,0.0,0.0,0
2014-02-14 20:55:00,0.21102661597,0,0.5,0.0,0.0,0.0,0
2014-02-14 21:00:00,0.0950570342205,0,0.5,0.0,0.0,0.0,0
2014-02-14 21:05:00,0.153992395437,0,0.5,0.0,0.0,0.0,0
2014-02-14 21:10:00,0.336501901141,0,0.5,0.0,0.0,0.0,0
2014-02-14 21:15:00,0.152091254753,0,0.5,0.0,0.0,0.0,0
2014-02-14 21:20:00,0.155893536122,0,0.5,0.0,0.0,0.0,0
2014-02-14 21:25:00,0.15969581749,0,0.5,0.0,0.0,0.0,0
2014-02-14 21:30:00,0.174904942966,0,0.5,0.0,0.0,0.0,0
2014-02-14 21:35:00,0.0627376425856,0,0.5,0.0,0.0,0.0,0
2014-02-14 21:40:00,0.249049429658,0,0.5,0.0,0.0,0.0,0
2014-02-14 21:45:00,0.121673003802,0,0.5,0.0,0.0,0.0,0
2014-02-14 21:50:00,0.115969581749,0,0.5,0.0,0.0,0.0,0
2014-02-14 21:55:00,0.0969581749049,0,0.5,0.0,0.0,0.0,0
2014-02-14 22:00:00,0.218631178707,0,0.5,0.0,0.0,0.0,0
2014-02-14 22:05:00,0.123574144487,0,0.5,0.0,0.0,0.0,0
2014-02-14 22:10:00,0.346007604563,0,0.5,0.0,0.0,0.0,0
2014-02-14 22:15:00,0.344106463878,0,0.5,0.0,0.0,0.0,0
2014-02-14 22:20:00,0.431558935361,0,0.5,0.0,0.0,0.0,0
2014-02-14 22:25:00,0.222433460076,0,0.5,0.0,0.0,0.0,0
2014-02-14 22:30:00,0.344106463878,0,0.5,0.0,0.0,0.0,0
2014-02-14 22:35:00,0.311787072243,0,0.5,0.0,0.0,0.0,0
2014-02-14 22:40:00,0.530418250951,0,0.5,0.0,0.0,0.0,0
2014-02-14 22:45:00,0.30608365019,0,0.5,0.0,0.0,0.0,0
2014-02-14 22:50:00,0.346007604563,0,0.5,0.0,0.0,0.0,0
2014-02-14 22:55:00,0.311787072243,0,0.5,0.0,0.0,0.0,0
2014-02-14 23:00:00,0.382129277567,0,0.5,0.0,0.0,0.0,0
2014-02-14 23:05:00,0.368821292776,0,0.5,0.0,0.0,0.0,0
2014-02-14 23:10:00,0.408745247148,0,0.5,0.0,0.0,0.0,0
2014-02-14 23:15:00,0.0950570342205,0,0.5,0.0,0.0,0.0,0
2014-02-14 23:20:00,0.218631178707,0,0.5,0.0,0.0,0.0,0
2014-02-14 23:25:00,0.121673003802,0,0.5,0.0,0.0,0.0,0
2014-02-14 23:30:00,0.209125475285,0,0.5,0.0,0.0,0.0,0
2014-02-14 23:35:00,0.0950570342205,0,0.5,0.0,0.0,0.0,0
2014-02-14 23:40:00,0.344106463878,0,0.5,0.0,0.0,0.0,0
2014-02-14 23:45:00,0.153992395437,0,0.5,0.0,0.0,0.0,0
2014-02-14 23:50:00,0.186311787072,0,0.5,0.0,0.0,0.0,0
2014-02-14 23:55:00,0.152091254753,0,0.5,0.0,0.0,0.0,0
2014-02-15 00:00:00,0.24144486692,0,0.5,0.0,0.0,0.0,0
2014-02-15 00:05:00,0.22433460076,0,0.5,0.0,0.0,0.0,0
2014-02-15 00:10:00,0.376425855513,0,0.5,0.0,0.0,0.0,0
2014-02-15 00:15:00,0.186311787072,0,0.5,0.0,0.0,0.0,0
2014-02-15 00:20:00,0.148288973384,0,0.5,0.0,0.0,0.0,0
2014-02-15 00:25:00,0.192015209125,0,0.5,0.0,0.0,0.0,0
2014-02-15 00:30:00,0.153992395437,0,0.5,0.0,0.0,0.0,0
2014-02-15 00:35:00,0.186311787072,0,0.5,0.0,0.0,0.0,0
2014-02-15 00:40:00,0.344106463878,0,0.5,0.0,0.0,0.0,0
2014-02-15 00:45:00,0.182509505703,0,0.5,0.0,0.0,0.0,0
2014-02-15 00:50:00,0.184410646388,0,0.5,0.0,0.0,0.0,0
2014-02-15 00:55:00,0.180608365019,0,0.5,0.0,0.0,0.0,0
2014-02-15 01:00:00,0.22433460076,0,0.5,0.0,0.0,0.0,0
2014-02-15 01:05:00,0.153992395437,0,0.5,0.0,0.0,0.0,0
2014-02-15 01:10:00,0.34030418251,0,0.5,0.0,0.0,0.0,0
2014-02-15 01:15:00,0.153992395437,0,0.5,0.0,0.0,0.0,0
2014-02-15 01:20:00,0.144486692015,0,0.5,0.0,0.0,0.0,0
2014-02-15 01:25:00,0.127376425856,0,0.5,0.0,0.0,0.0,0
2014-02-15 01:30:00,0.117870722433,0,0.5,0.0,0.0,0.0,0
2014-02-15 01:35:00,0.216730038023,0,0.5,0.0,0.0,0.0,0
2014-02-15 01:40:00,0.376425855513,0,0.5,0.0,0.0,0.0,0
2014-02-15 01:45:00,0.0912547528517,0,0.5,0.0,0.0,0.0,0
2014-02-15 01:50:00,0.161596958175,0,0.5,0.0,0.0,0.0,0
2014-02-15 01:55:00,0.186311787072,0,0.5,0.0,0.0,0.0,0
2014-02-15 02:00:00,0.121673003802,0,0.5,0.0,0.0,0.0,0
2014-02-15 02:05:00,0.186311787072,0,0.5,0.0,0.0,0.0,0
2014-02-15 02:10:00,0.433460076046,0,0.5,0.0,0.0,0.0,0
2014-02-15 02:15:00,0.184410646388,0,0.5,0.0,0.0,0.0,0
2014-02-15 02:20:00,0.152091254753,0,0.5,0.0,0.0,0.0,0
2014-02-15 02:25:00,0.0627376425856,0,0.5,0.0,0.0,0.0,0
2014-02-15 02:30:00,0.243346007605,0,0.5,0.0,0.0,0.0,0
2014-02-15 02:35:00,0.214828897338,0,0.5,0.0,0.0,0.0,0
2014-02-15 02:40:00,0.321292775665,0,0.5,0.0,0.0,0.0,0
2014-02-15 02:45:00,0.153992395437,0,0.5,0.0,0.0,0.0,0
2014-02-15 02:50:00,0.153992395437,0,0.5,0.0,0.0,0.0,0
2014-02-15 02:55:00,0.148288973384,0,0.5,0.0,0.0,0.0,0
2014-02-15 03:00:00,0.222433460076,0,0.5,0.0,0.0,0.0,0
2014-02-15 03:05:00,0.243346007605,0,0.5,0.0,0.0,0.0,0
2014-02-15 03:10:00,0.285171102662,0,0.5,0.0,0.0,0.0,0
2014-02-15 03:15:00,0.150190114068,0,0.5,0.0,0.0,0.0,0
2014-02-15 03:20:00,0.243346007605,0,0.5,0.0,0.0,0.0,0
2014-02-15 03:25:00,0.127376425856,0,0.5,0.0,0.0,0.0,0
2014-02-15 03:30:00,0.819391634981,0,0.5,0.0,0.0,0.0,0
2014-02-15 03:35:00,0.186311787072,0,0.5,0.0,0.0,0.0,0
2014-02-15 03:40:00,0.344106463878,0,0.5,0.0,0.0,0.0,0
2014-02-15 03:45:00,0.123574144487,0,0.5,0.0,0.0,0.0,0
2014-02-15 03:50:00,0.184410646388,0,0.5,0.0,0.0,0.0,0
2014-02-15 03:55:00,0.148288973384,0,0.5,0.0,0.0,0.0,0
2014-02-15 04:00:00,0.157794676806,0,0.5,0.0,0.0,0.0,0
2014-02-15 04:05:00,0.21102661597,0,0.5,0.0,0.0,0.0,0
2014-02-15 04:10:00,0.319391634981,0,0.5,0.0,0.0,0.0,0
2014-02-15 04:15:00,0.153992395437,0,0.5,0.0,0.0,0.0,0
2014-02-15 04:20:00,0.186311787072,0,0.5,0.0,0.0,0.0,0
2014-02-15 04:25:00,0.180608365019,0,0.5,0.0,0.0,0.0,0
2014-02-15 04:30:00,0.184410646388,0,0.5,0.0,0.0,0.0,0
2014-02-15 04:35:00,0.15969581749,0,0.5,0.0,0.0,0.0,0
2014-02-15 04:40:00,0.406844106464,0,0.5,0.0,0.0,0.0,0
2014-02-15 04:45:00,0.184410646388,0,0.5,0.0,0.0,0.0,0
2014-02-15 04:50:00,0.216730038023,0,0.5,0.0,0.0,0.0,0
2014-02-15 04:55:00,0.182509505703,0,0.5,0.0,0.0,0.0,0
2014-02-15 05:00:00,0.184410646388,0,0.5,0.0,0.0,0.0,0
2014-02-15 05:05:00,0.178707224335,0,0.5,0.0,0.0,0.0,0
2014-02-15 05:10:00,0.473384030418,0,0.5,0.0,0.0,0.0,0
2014-02-15 05:15:00,0.127376425856,0,0.5,0.0,0.0,0.0,0
2014-02-15 05:20:00,0.155893536122,0,0.5,0.0,0.0,0.0,0
2014-02-15 05:25:00,0.269961977186,0,0.5,0.0,0.0,0.0,0
2014-02-15 05:30:00,0.0931558935361,0,0.5,0.0,0.0,0.0,0
2014-02-15 05:35:00,0.336501901141,0,0.5,0.0,0.0,0.0,0
2014-02-15 05:40:00,0.249049429658,0,0.5,0.0,0.0,0.0,0
2014-02-15 05:45:00,0.123574144487,0,0.5,0.0,0.0,0.0,0
2014-02-15 05:50:00,0.153992395437,0,0.5,0.0,0.0,0.0,0
2014-02-15 05:55:00,0.209125475285,0,0.5,0.0,0.0,0.0,0
2014-02-15 06:00:00,0.127376425856,0,0.5,0.0,0.0,0.0,0
2014-02-15 06:05:00,0.178707224335,0,0.5,0.0,0.0,0.0,0
2014-02-15 06:10:00,0.410646387833,0,0.5,0.0,0.0,0.0,0
2014-02-15 06:15:00,0.119771863118,0,0.5,0.0,0.0,0.0,0
2014-02-15 06:20:00,0.127376425856,0,0.5,0.0,0.0,0.0,0
2014-02-15 06:25:00,0.180608365019,0,0.5,0.0,0.0,0.0,0
2014-02-15 06:30:00,0.127376425856,0,0.5,0.0,0.0,0.0,0
2014-02-15 06:35:00,0.182509505703,0,0.5,0.0,0.0,0.0,0
2014-02-15 06:40:00,0.30608365019,0,0.5,0.0,0.0,0.0,0
2014-02-15 06:45:00,0.249049429658,0,0.5,0.0,0.0,0.0,0
2014-02-15 06:50:00,0.121673003802,0,0.5,0.0,0.0,0.0,0
2014-02-15 06:55:00,0.186311787072,0,0.5,0.0,0.0,0.0,0
2014-02-15 07:00:00,0.15969581749,0,0.5,0.0,0.0,0.0,0
2014-02-15 07:05:00,0.271863117871,0,0.5,0.0,0.0,0.0,0
2014-02-15 07:10:00,0.281368821293,0,0.5,0.0,0.0,0.0,0
2014-02-15 07:15:00,0.186311787072,0,0.5,0.0,0.0,0.0,0
2014-02-15 07:20:00,0.155893536122,0,0.5,0.0,0.0,0.0,0
2014-02-15 07:25:00,0.24144486692,0,0.5,0.0,0.0,0.0,0
2014-02-15 07:30:00,0.127376425856,0,0.5,0.0,0.0,0.0,0
2014-02-15 07:35:00,0.186311787072,0,0.5,0.0,0.0,0.0,0
2014-02-15 07:40:00,0.34030418251,0,0.5,0.0,0.0,0.0,0
2014-02-15 07:45:00,0.209125475285,0,0.5,0.0,0.0,0.0,0
2014-02-15 07:50:00,0.15969581749,0,0.5,0.0,0.0,0.0,0
2014-02-15 07:55:00,0.153992395437,0,0.5,0.0,0.0,0.0,0
2014-02-15 08:00:00,0.216730038023,0,0.5,0.0,0.0,0.0,0
2014-02-15 08:05:00,0.207224334601,0,0.5,0.0,0.0,0.0,0
2014-02-15 08:10:00,0.317490494297,0,0.5,0.0,0.0,0.0,0
2014-02-15 08:15:00,0.178707224335,0,0.5,0.0,0.0,0.0,0
2014-02-15 08:20:00,0.214828897338,0,0.5,0.0,0.0,0.0,0
2014-02-15 08:25:00,0.0950570342205,0,0.5,0.0,0.0,0.0,0
2014-02-15 08:30:00,0.186311787072,0,0.5,0.0,0.0,0.0,0
2014-02-15 08:35:00,0.148288973384,0,0.5,0.0,0.0,0.0,0
2014-02-15 08:40:00,0.384030418251,0,0.5,0.0,0.0,0.0,0
2014-02-15 08:45:00,0.148288973384,0,0.5,0.0,0.0,0.0,0
2014-02-15 08:50:00,0.188212927757,0,0.5,0.0,0.0,0.0,0
2014-02-15 08:55:00,0.144486692015,0,0.5,0.0,0.0,0.0,0
2014-02-15 09:00:00,0.222433460076,0,0.5,0.0,0.0,0.0,0
2014-02-15 09:05:00,0.155893536122,0,0.5,0.0,0.0,0.0,0
2014-02-15 09:10:00,0.401140684411,0,0.5,0.0,0.0,0.0,0
2014-02-15 09:15:00,0.184410646388,0,0.5,0.0,0.0,0.0,0
2014-02-15 09:20:00,0.152091254753,0,0.5,0.0,0.0,0.0,0
2014-02-15 09:25:00,0.161596958175,0,0.5,0.0,0.0,0.0,0
2014-02-15 09:30:00,0.24144486692,0,0.5,0.0,0.0,0.0,0
2014-02-15 09:35:00,0.119771863118,0,0.5,0.0,0.0,0.0,0
2014-02-15 09:40:00,0.254752851711,0,0.5,0.0,0.0,0.0,0
2014-02-15 09:45:00,0.1463878327,0,0.5,0.0,0.0,0.0,0
2014-02-15 09:50:00,0.212927756654,0,0.5,0.0,0.0,0.0,0
2014-02-15 09:55:00,0.469581749049,0,0.5,0.0,0.0,0.0,0
2014-02-15 10:00:00,0.0969581749049,0,0.5,0.0,0.0,0.0,0
2014-02-15 10:05:00,0.24144486692,0,0.5,0.0,0.0,0.0,0
2014-02-15 10:10:00,0.256653992395,0,0.5,0.0,0.0,0.0,0
2014-02-15 10:15:00,0.152091254753,0,0.5,0.0,0.0,0.0,0
2014-02-15 10:20:00,0.148288973384,0,0.5,0.0,0.0,0.0,0
2014-02-15 10:25:00,0.0969581749049,0,0.5,0.0,0.0,0.0,0
2014-02-15 10:30:00,0.153992395437,0,0.5,0.0,0.0,0.0,0
2014-02-15 10:35:00,0.178707224335,0,0.5,0.0,0.0,0.0,0
2014-02-15 10:40:00,0.25855513308,0,0.5,0.0,0.0,0.0,0
2014-02-15 10:45:00,0.178707224335,0,0.5,0.0,0.0,0.0,0
2014-02-15 10:50:00,0.0969581749049,0,0.5,0.0,0.0,0.0,0
2014-02-15 10:55:00,0.243346007605,0,0.5,0.0,0.0,0.0,0
2014-02-15 11:00:00,0.121673003802,0,0.5,0.0,0.0,0.0,0
2014-02-15 11:05:00,0.152091254753,0,0.5,0.0,0.0,0.0,0
2014-02-15 11:10:00,0.3536121673,0,0.5,0.0,0.0,0.0,0
2014-02-15 11:15:00,0.273764258555,0,0.5,0.0,0.0,0.0,0
2014-02-15 11:20:00,0.0304182509506,0,0.5,0.0,0.0,0.0,0
2014-02-15 11:25:00,0.180608365019,0,0.5,0.0,0.0,0.0,0
2014-02-15 11:30:00,0.125475285171,0,0.5,0.0,0.0,0.0,0
2014-02-15 11:35:00,0.148288973384,0,0.5,0.0,0.0,0.0,0
2014-02-15 11:40:00,0.313688212928,0,0.5,0.0,0.0,0.0,0
2014-02-15 11:45:00,0.214828897338,0,0.5,0.0,0.0,0.0,0
2014-02-15 11:50:00,0.115969581749,0,0.5,0.0,0.0,0.0,0
2014-02-15 11:55:00,0.15969581749,0,0.5,0.0,0.0,0.0,0
2014-02-15 12:00:00,0.249049429658,0,0.5,0.0,0.0,0.0,0
2014-02-15 12:05:00,0.153992395437,0,0.5,0.0,0.0,0.0,0
2014-02-15 12:10:00,0.372623574144,0,0.5,0.0,0.0,0.0,0
2014-02-15 12:15:00,0.186311787072,0,0.5,0.0,0.0,0.0,0
2014-02-15 12:20:00,0.239543726236,0,0.5,0.0,0.0,0.0,0
2014-02-15 12:25:00,0.0950570342205,0,0.5,0.0,0.0,0.0,0
2014-02-15 12:30:00,0.184410646388,0,0.5,0.0,0.0,0.0,0
2014-02-15 12:35:00,0.152091254753,0,0.5,0.0,0.0,0.0,0
2014-02-15 12:40:00,0.463878326996,0,0.5,0.0,0.0,0.0,0
2014-02-15 12:45:00,0.0893536121673,0,0.5,0.0,0.0,0.0,0
2014-02-15 12:50:00,0.192015209125,0,0.5,0.0,0.0,0.0,0
2014-02-15 12:55:00,0.155893536122,0,0.5,0.0,0.0,0.0,0
2014-02-15 13:00:00,0.249049429658,0,0.5,0.0,0.0,0.0,0
2014-02-15 13:05:00,0.184410646388,0,0.5,0.0,0.0,0.0,0
2014-02-15 13:10:00,0.433460076046,0,0.5,0.0,0.0,0.0,0
2014-02-15 13:15:00,0.157794676806,0,0.5,0.0,0.0,0.0,0
2014-02-15 13:20:00,0.212927756654,0,0.5,0.0,0.0,0.0,0
2014-02-15 13:25:00,0.15969581749,0,0.5,0.0,0.0,0.0,0
2014-02-15 13:30:00,0.186311787072,0,0.5,0.0,0.0,0.0,0
2014-02-15 13:35:00,0.180608365019,0,0.5,0.0,0.0,0.0,0
2014-02-15 13:40:00,0.3536121673,0,0.5,0.0,0.0,0.0,0
2014-02-15 13:45:00,0.21102661597,0,0.5,0.0,0.0,0.0,0
2014-02-15 13:50:00,0.125475285171,0,0.5,0.0,0.0,0.0,0
2014-02-15 13:55:00,0.178707224335,0,0.5,0.0,0.0,0.0,0
2014-02-15 14:00:00,0.220532319392,0,0.5,0.0,0.0,0.0,0
2014-02-15 14:05:00,0.152091254753,0,0.5,0.0,0.0,0.0,0
2014-02-15 14:10:00,0.37072243346,0,0.5,0.0,0.0,0.0,0
2014-02-15 14:15:00,0.22433460076,0,0.5,0.0,0.0,0.0,0
2014-02-15 14:20:00,0.218631178707,0,0.5,0.0,0.0,0.0,0
2014-02-15 14:25:00,0.184410646388,0,0.5,0.0,0.0,0.0,0
2014-02-15 14:30:00,0.21102661597,0,0.5,0.0,0.0,0.0,0
2014-02-15 14:35:00,0.15969581749,0,0.5,0.0,0.0,0.0,0
2014-02-15 14:40:00,0.271863117871,0,0.5,0.0,0.0,0.0,0
2014-02-15 14:45:00,0.186311787072,0,0.5,0.0,0.0,0.0,0
2014-02-15 14:50:00,0.121673003802,0,0.5,0.0,0.0,0.0,0
2014-02-15 14:55:00,0.150190114068,0,0.5,0.0,0.0,0.0,0
2014-02-15 15:00:00,0.184410646388,0,0.5,0.0,0.0,0.0,0
2014-02-15 15:05:00,0.153992395437,0,0.5,0.0,0.0,0.0,0
2014-02-15 15:10:00,0.3536121673,0,0.5,0.0,0.0,0.0,0
2014-02-15 15:15:00,0.214828897338,0,0.5,0.0,0.0,0.0,0
2014-02-15 15:20:00,0.123574144487,0,0.5,0.0,0.0,0.0,0
2014-02-15 15:25:00,0.184410646388,0,0.5,0.0,0.0,0.0,0
2014-02-15 15:30:00,0.152091254753,0,0.5,0.0,0.0,0.0,0
2014-02-15 15:35:00,0.214828897338,0,0.5,0.0,0.0,0.0,0
2014-02-15 15:40:00,0.309885931559,0,0.5,0.0,0.0,0.0,0
2014-02-15 15:45:00,0.243346007605,0,0.5,0.0,0.0,0.0,0
2014-02-15 15:50:00,0.0950570342205,0,0.5,0.0,0.0,0.0,0
2014-02-15 15:55:00,0.184410646388,0,0.5,0.0,0.0,0.0,0
2014-02-15 16:00:00,0.216730038023,0,0.5,0.0,0.0,0.0,0
2014-02-15 16:05:00,0.184410646388,0,0.5,0.0,0.0,0.0,0
2014-02-15 16:10:00,0.309885931559,0,0.5,0.0,0.0,0.0,0
2014-02-15 16:15:00,0.153992395437,0,0.5,0.0,0.0,0.0,0
2014-02-15 16:20:00,0.115969581749,0,0.5,0.0,0.0,0.0,0
2014-02-15 16:25:00,0.212927756654,0,0.5,0.0,0.0,0.0,0
2014-02-15 16:30:00,0.127376425856,0,0.5,0.0,0.0,0.0,0
2014-02-15 16:35:00,0.121673003802,0,0.5,0.0,0.0,0.0,0
2014-02-15 16:40:00,0.346007604563,0,0.5,0.0,0.0,0.0,0
2014-02-15 16:45:00,0.123574144487,0,0.5,0.0,0.0,0.0,0
2014-02-15 16:50:00,0.186311787072,0,0.5,0.0,0.0,0.0,0
2014-02-15 16:55:00,0.17680608365,0,0.5,0.0,0.0,0.0,0
2014-02-15 17:00:00,0.127376425856,0,0.5,0.0,0.0,0.0,0
2014-02-15 17:05:00,0.243346007605,0,0.5,0.0,0.0,0.0,0
2014-02-15 17:10:00,0.351711026616,0,0.5,0.0,0.0,0.0,0
2014-02-15 17:15:00,0.119771863118,0,0.5,0.0,0.0,0.0,0
2014-02-15 17:20:00,0.188212927757,0,0.5,0.0,0.0,0.0,0
2014-02-15 17:25:00,0.148288973384,0,0.5,0.0,0.0,0.0,0
2014-02-15 17:30:00,0.186311787072,0,0.5,0.0,0.0,0.0,0
2014-02-15 17:35:00,0.161596958175,0,0.5,0.0,0.0,0.0,0
2014-02-15 17:40:00,0.395437262357,0,0.5,0.0,0.0,0.0,0
2014-02-15 17:45:00,0.125475285171,0,0.5,0.0,0.0,0.0,0
2014-02-15 17:50:00,0.24144486692,0,0.5,0.0,0.0,0.0,0
2014-02-15 17:55:00,0.125475285171,0,0.5,0.0,0.0,0.0,0
2014-02-15 18:00:00,0.186311787072,0,0.5,0.0,0.0,0.0,0
2014-02-15 18:05:00,0.153992395437,0,0.5,0.0,0.0,0.0,0
2014-02-15 18:10:00,0.374524714829,0,0.5,0.0,0.0,0.0,0
2014-02-15 18:15:00,0.180608365019,0,0.5,0.0,0.0,0.0,0
2014-02-15 18:20:00,0.161596958175,0,0.5,0.0,0.0,0.0,0
2014-02-15 18:25:00,0.186311787072,0,0.5,0.0,0.0,0.0,0
2014-02-15 18:30:00,0.216730038023,0,0.5,0.0,0.0,0.0,0
2014-02-15 18:35:00,0.121673003802,0,0.5,0.0,0.0,0.0,0
2014-02-15 18:40:00,0.408745247148,0,0.5,0.0,0.0,0.0,0
2014-02-15 18:45:00,0.121673003802,0,0.5,0.0,0.0,0.0,0
2014-02-15 18:50:00,0.186311787072,0,0.5,0.0,0.0,0.0,0
2014-02-15 18:55:00,0.153992395437,0,0.5,0.0,0.0,0.0,0
2014-02-15 19:00:00,0.150190114068,0,0.5,0.0,0.0,0.0,0
2014-02-15 19:05:00,0.15969581749,0,0.5,0.0,0.0,0.0,0
2014-02-15 19:10:00,0.338403041825,0,0.5,0.0,0.0,0.0,0
2014-02-15 19:15:00,0.190114068441,0,0.5,0.0,0.0,0.0,0
2014-02-15 19:20:00,0.271863117871,0,0.5,0.0,0.0,0.0,0
2014-02-15 19:25:00,0.0627376425856,0,0.5,0.0,0.0,0.0,0
2014-02-15 19:30:00,0.148288973384,0,0.5,0.0,0.0,0.0,0
2014-02-15 19:35:00,0.161596958175,0,0.5,0.0,0.0,0.0,0
2014-02-15 19:40:00,0.344106463878,0,0.5,0.0,0.0,0.0,0
2014-02-15 19:45:00,0.186311787072,0,0.5,0.0,0.0,0.0,0
2014-02-15 19:50:00,0.0912547528517,0,0.5,0.0,0.0,0.0,0
2014-02-15 19:55:00,0.153992395437,0,0.5,0.0,0.0,0.0,0
2014-02-15 20:00:00,0.178707224335,0,0.5,0.0,0.0,0.0,0
2014-02-15 20:05:00,0.281368821293,0,0.5,0.0,0.0,0.0,0
2014-02-15 20:10:00,0.28897338403,0,0.5,0.0,0.0,0.0,0
2014-02-15 20:15:00,0.17680608365,0,0.5,0.0,0.0,0.0,0
2014-02-15 20:20:00,0.123574144487,0,0.5,0.0,0.0,0.0,0
2014-02-15 20:25:00,0.184410646388,0,0.5,0.0,0.0,0.0,0
2014-02-15 20:30:00,0.121673003802,0,0.5,0.0,0.0,0.0,0
2014-02-15 20:35:00,0.0950570342205,0,0.5,0.0,0.0,0.0,0
2014-02-15 20:40:00,0.344106463878,0,0.5,0.0,0.0,0.0,0
2014-02-15 20:45:00,0.209125475285,0,0.5,0.0,0.0,0.0,0
2014-02-15 20:50:00,0.0589353612167,0,0.5,0.0,0.0,0.0,0
2014-02-15 20:55:00,0.15969581749,0,0.5,0.0,0.0,0.0,0
2014-02-15 21:00:00,0.152091254753,0,0.5,0.0,0.0,0.0,0
2014-02-15 21:05:00,0.184410646388,0,0.5,0.0,0.0,0.0,0
2014-02-15 21:10:00,0.247148288973,0,0.5,0.0,0.0,0.0,0
2014-02-15 21:15:00,0.152091254753,0,0.5,0.0,0.0,0.0,0
2014-02-15 21:20:00,0.153992395437,0,0.5,0.0,0.0,0.0,0
2014-02-15 21:25:00,0.121673003802,0,0.5,0.0,0.0,0.0,0
2014-02-15 21:30:00,0.153992395437,0,0.5,0.0,0.0,0.0,0
2014-02-15 21:35:00,0.273764258555,0,0.5,0.0,0.0,0.0,0
2014-02-15 21:40:00,0.281368821293,0,0.5,0.0,0.0,0.0,0
2014-02-15 21:45:00,0.125475285171,0,0.5,0.0,0.0,0.0,0
2014-02-15 21:50:00,0.182509505703,0,0.5,0.0,0.0,0.0,0
2014-02-15 21:55:00,0.1463878327,0,0.5,0.0,0.0,0.0,0
2014-02-15 22:00:00,0.214828897338,0,0.5,0.0,0.0,0.0,0
2014-02-15 22:05:00,0.157794676806,0,0.5,0.0,0.0,0.0,0
2014-02-15 22:10:00,0.311787072243,0,0.5,0.0,0.0,0.0,0
2014-02-15 22:15:00,0.121673003802,0,0.5,0.0,0.0,0.0,0
2014-02-15 22:20:00,0.218631178707,0,0.5,0.0,0.0,0.0,0
2014-02-15 22:25:00,0.0893536121673,0,0.5,0.0,0.0,0.0,0
2014-02-15 22:30:00,0.184410646388,0,0.5,0.0,0.0,0.0,0
2014-02-15 22:35:00,0.114068441065,0,0.5,0.0,0.0,0.0,0
2014-02-15 22:40:00,0.317490494297,0,0.5,0.0,0.0,0.0,0
2014-02-15 22:45:00,0.119771863118,0,0.5,0.0,0.0,0.0,0
2014-02-15 22:50:00,0.186311787072,0,0.744035393761,0.0,0.0,0.0,0
2014-02-15 22:55:00,0.121673003802,0,0.806312404681,0.0,0.0,0.0,0
2014-02-15 23:00:00,0.186311787072,0,0.943950170637,0.0,0.0,0.0,0
2014-02-15 23:05:00,0.155893536122,0,0.917925468581,0.0,0.0,0.0,0
2014-02-15 23:10:00,0.404942965779,0,0.623835525691,0.0,0.0,0.0,0
2014-02-15 23:15:00,0.218631178707,0,0.666700948347,0.0,0.0,0.0,0
2014-02-15 23:20:00,0.180608365019,0,0.658682060824,0.0,0.0,0.0,0
2014-02-15 23:25:00,0.12927756654,0,0.690292516675,0.0,0.0,0.0,0
2014-02-15 23:30:00,0.155893536122,0,0.668693998641,0.0,0.0,0.0,0
2014-02-15 23:35:00,0.121673003802,0,0.664703180075,0.0,0.0,0.0,0
2014-02-15 23:40:00,0.336501901141,0,0.670682282211,0.0,0.0,0.0,0
2014-02-15 23:45:00,0.127376425856,0,0.682509203902,0.0,0.0,0.0,0
2014-02-15 23:50:00,0.0912547528517,0,0.517353847398,0.0,0.0,0.0,0
2014-02-15 23:55:00,0.243346007605,0,0.677743654012,0.0,0.0,0.0,0
2014-02-16 00:00:00,0.0627376425856,0,0.935030661435,0.0,0.0,0.0,0
2014-02-16 00:05:00,0.178707224335,0,0.959494249309,0.0,0.0,0.0,0
2014-02-16 00:10:00,0.378326996198,0,0.726847769572,0.0,0.0,0.0,0
2014-02-16 00:15:00,0.214828897338,0,0.543546060811,0.0,0.0,0.0,0
2014-02-16 00:20:00,0.184410646388,0,0.522039809876,0.0,0.0,0.0,0
2014-02-16 00:25:00,0.125475285171,0,0.530778293913,0.0,0.0,0.0,0
2014-02-16 00:30:00,0.0874524714829,0,0.913191776048,0.0,0.0,0.0,0
2014-02-16 00:35:00,0.186311787072,0,0.846232541301,0.0,0.0,0.0,0
2014-02-16 00:40:00,0.311787072243,0,0.599807152686,0.0,0.0,0.0,0
2014-02-16 00:45:00,0.186311787072,0,0.530466435203,0.0,0.0,0.0,0
2014-02-16 00:50:00,0.153992395437,0,0.673796980956,0.0,0.0,0.0,0
2014-02-16 00:55:00,0.216730038023,0,0.748554889148,0.0,0.0,0.0,0
2014-02-16 01:00:00,0.153992395437,0,0.734099692897,0.0,0.0,0.0,0
2014-02-16 01:05:00,0.247148288973,0,0.66954670668,0.0,0.0,0.0,0
2014-02-16 01:10:00,0.376425855513,0,0.748554889148,0.0,0.0,0.0,0
2014-02-16 01:15:00,0.218631178707,0,0.886435992049,0.0,0.0,0.0,0
2014-02-16 01:20:00,0.184410646388,0,0.961434740701,0.0,0.0,0.0,0
2014-02-16 01:25:00,0.218631178707,0,0.97466012904,0.0,0.0,0.0,0
2014-02-16 01:30:00,0.153992395437,0,0.851559404531,0.0,0.0,0.0,0
2014-02-16 01:35:00,0.273764258555,0,0.939195690992,0.0,0.0,0.0,0
2014-02-16 01:40:00,0.256653992395,0,0.983854088311,0.0,0.0,0.0,0
2014-02-16 01:45:00,0.155893536122,0,0.963235767062,0.0,0.0,0.0,0
2014-02-16 01:50:00,0.180608365019,0,0.974004319564,0.0,0.0,0.0,0
2014-02-16 01:55:00,0.15969581749,0,0.924824581663,0.0,0.0,0.0,0
2014-02-16 02:00:00,0.216730038023,0,0.697170666433,0.0,0.0,0.0,0
2014-02-16 02:05:00,0.178707224335,0,0.612475541853,0.0,0.0,0.0,0
2014-02-16 02:10:00,0.480988593156,0,0.977146385924,0.0,0.0,0.0,0
2014-02-16 02:15:00,0.186311787072,0,0.964967414337,0.0,0.0,0.0,0
2014-02-16 02:20:00,0.184410646388,0,0.976544932435,0.0,0.0,0.0,0
2014-02-16 02:25:00,0.153992395437,0,0.902443482766,0.0,0.0,0.0,0
2014-02-16 02:30:00,0.153992395437,0,0.758934159914,0.0,0.0,0.0,0
2014-02-16 02:35:00,0.178707224335,0,0.798026918697,0.0,0.0,0.0,0
2014-02-16 02:40:00,0.351711026616,0,0.965807805671,0.0,0.0,0.0,0
2014-02-16 02:45:00,0.1463878327,0,0.95956245803,0.0,0.0,0.0,0
2014-02-16 02:50:00,0.192015209125,0,0.945525888794,0.0,0.0,0.0,0
2014-02-16 02:55:00,0.152091254753,0,0.926368860403,0.0,0.0,0.0,0
2014-02-16 03:00:00,0.249049429658,0,0.543856962885,0.0,0.0,0.0,0
2014-02-16 03:05:00,0.21102661597,0,0.599807152686,0.0,0.0,0.0,0
2014-02-16 03:10:00,0.317490494297,0,0.846418306872,0.0,0.0,0.0,0
2014-02-16 03:15:00,0.153992395437,0,0.846418306872,0.0,0.0,0.0,0
2014-02-16 03:20:00,0.186311787072,0,0.886435992049,0.0,0.0,0.0,0
2014-02-16 03:25:00,0.186311787072,0,0.894659574373,0.0,0.0,0.0,0
2014-02-16 03:30:00,0.281368821293,0,0.801103851627,0.0,0.0,0.0,0
2014-02-16 03:35:00,0.188212927757,0,0.861492704952,0.0,0.0,0.0,0
2014-02-16 03:40:00,0.91825095057,0,0.999999935413,0.0,0.0,0.0,1
2014-02-16 03:45:00,0.153992395437,0,0.999,0.0,0.0,0.0,0
2014-02-16 03:50:00,0.148288973384,0,0.999,0.0,0.0,0.0,0
2014-02-16 03:55:00,0.0912547528517,0,0.99997061985,0.0,0.0,0.0,0
2014-02-16 04:00:00,0.212927756654,0,0.999679959009,0.0,0.0,0.0,0
2014-02-16 04:05:00,0.121673003802,0,0.999375478974,0.0,0.0,0.0,0
2014-02-16 04:10:00,0.461977186312,0,0.999999278631,0.0,0.0,0.0,1
2014-02-16 04:15:00,0.06463878327,0,0.999980768352,0.0,0.0,0.0,0
2014-02-16 04:20:00,0.123574144487,0,0.999325824816,0.0,0.0,0.0,0
2014-02-16 04:25:00,0.153992395437,0,0.998684748541,0.0,0.0,0.0,0
2014-02-16 04:30:00,0.148288973384,0,0.924713338117,0.0,0.0,0.0,0
2014-02-16 04:35:00,0.192015209125,0,0.88838467087,0.0,0.0,0.0,0
2014-02-16 04:40:00,0.403041825095,0,0.599807152686,0.0,0.0,0.0,0
2014-02-16 04:45:00,0.0950570342205,0,0.608265306583,0.0,0.0,0.0,0
2014-02-16 04:50:00,0.123574144487,0,0.595256389337,0.0,0.0,0.0,0
2014-02-16 04:55:00,0.184410646388,0,0.548206686874,0.0,0.0,0.0,0
2014-02-16 05:00:00,0.243346007605,0,0.87309582707,0.0,0.0,0.0,0
2014-02-16 05:05:00,0.0893536121673,0,0.840970729996,0.0,0.0,0.0,0
2014-02-16 05:10:00,0.321292775665,0,0.556888281628,0.0,0.0,0.0,0
2014-02-16 05:15:00,0.186311787072,0,0.629180021665,0.0,0.0,0.0,0
2014-02-16 05:20:00,0.153992395437,0,0.64155241629,0.0,0.0,0.0,0
2014-02-16 05:25:00,0.186311787072,0,0.629180021665,0.0,0.0,0.0,0
2014-02-16 05:30:00,0.121673003802,0,0.902308287646,0.0,0.0,0.0,0
2014-02-16 05:35:00,0.184410646388,0,0.781989101186,0.0,0.0,0.0,0
2014-02-16 05:40:00,0.281368821293,0,0.552550631438,0.0,0.0,0.0,0
2014-02-16 05:45:00,0.184410646388,0,0.552550631438,0.0,0.0,0.0,0
2014-02-16 05:50:00,0.123574144487,0,0.712056178778,0.0,0.0,0.0,0
2014-02-16 05:55:00,0.155893536122,0,0.569550357417,0.0,0.0,0.0,0
2014-02-16 06:00:00,0.153992395437,0,0.87309582707,0.0,0.0,0.0,0
2014-02-16 06:05:00,0.21102661597,0,0.840970729996,0.0,0.0,0.0,0
2014-02-16 06:10:00,0.287072243346,0,0.590997340809,0.0,0.0,0.0,0
2014-02-16 06:15:00,0.186311787072,0,0.590997340809,0.0,0.0,0.0,0
2014-02-16 06:20:00,0.21102661597,0,0.612475541853,0.0,0.0,0.0,0
2014-02-16 06:25:00,0.0627376425856,0,0.661554416035,0.0,0.0,0.0,0
2014-02-16 06:30:00,0.152091254753,0,0.877605671189,0.0,0.0,0.0,0
2014-02-16 06:35:00,0.1463878327,0,0.916610458985,0.0,0.0,0.0,0
2014-02-16 06:40:00,0.321292775665,0,0.595256389337,0.0,0.0,0.0,0
2014-02-16 06:45:00,0.148288973384,0,0.612175242536,0.0,0.0,0.0,0
2014-02-16 06:50:00,0.218631178707,0,0.535142246629,0.0,0.0,0.0,0
2014-02-16 06:55:00,0.123574144487,0,0.661554416035,0.0,0.0,0.0,0
2014-02-16 07:00:00,0.22433460076,0,0.781989101186,0.0,0.0,0.0,0
2014-02-16 07:05:00,0.150190114068,0,0.838296097569,0.0,0.0,0.0,0
2014-02-16 07:10:00,0.382129277567,0,0.500156390301,0.0,0.0,0.0,0
2014-02-16 07:15:00,0.153992395437,0,0.700992304939,0.0,0.0,0.0,0
2014-02-16 07:20:00,0.216730038023,0,0.816060225632,0.0,0.0,0.0,0
2014-02-16 07:25:00,0.117870722433,0,0.769075981349,0.0,0.0,0.0,0
2014-02-16 07:30:00,0.190114068441,0,0.508600800429,0.0,0.0,0.0,0
2014-02-16 07:35:00,0.180608365019,0,0.565542650584,0.0,0.0,0.0,0
2014-02-16 07:40:00,0.349809885932,0,0.821841341253,0.0,0.0,0.0,0
2014-02-16 07:45:00,0.0912547528517,0,0.769075981349,0.0,0.0,0.0,0
2014-02-16 07:50:00,0.216730038023,0,0.755500505594,0.0,0.0,0.0,0
2014-02-16 07:55:00,0.153992395437,0,0.762341425664,0.0,0.0,0.0,0
2014-02-16 08:00:00,0.184410646388,0,0.665559941046,0.0,0.0,0.0,0
2014-02-16 08:05:00,0.153992395437,0,0.665559941046,0.0,0.0,0.0,0
2014-02-16 08:10:00,0.397338403042,0,0.600180440516,0.0,0.0,0.0,0
2014-02-16 08:15:00,0.0950570342205,0,0.557996354828,0.0,0.0,0.0,0
2014-02-16 08:20:00,0.153992395437,0,0.509967288925,0.0,0.0,0.0,0
2014-02-16 08:25:00,0.121673003802,0,0.619355278053,0.0,0.0,0.0,0
2014-02-16 08:30:00,0.186311787072,0,0.859312593934,0.0,0.0,0.0,0
2014-02-16 08:35:00,0.148288973384,0,0.790290200148,0.0,0.0,0.0,0
2014-02-16 08:40:00,0.378326996198,0,0.517138891546,0.0,0.0,0.0,0
2014-02-16 08:45:00,0.032319391635,0,0.731897974873,0.0,0.0,0.0,0
2014-02-16 08:50:00,0.153992395437,0,0.777107448299,0.0,0.0,0.0,0
2014-02-16 08:55:00,0.148288973384,0,0.785072974217,0.0,0.0,0.0,0
2014-02-16 09:00:00,0.0912547528517,0,0.987370165331,0.0,0.0,0.0,0
2014-02-16 09:05:00,0.186311787072,0,0.964518666047,0.0,0.0,0.0,0
2014-02-16 09:10:00,0.28897338403,0,0.878429522624,0.0,0.0,0.0,0
2014-02-16 09:15:00,0.150190114068,0,0.849026744208,0.0,0.0,0.0,0
2014-02-16 09:20:00,0.127376425856,0,0.905082812161,0.0,0.0,0.0,0
2014-02-16 09:25:00,0.186311787072,0,0.871014028338,0.0,0.0,0.0,0
2014-02-16 09:30:00,0.0912547528517,0,0.993598968549,0.0,0.0,0.0,0
2014-02-16 09:35:00,0.17680608365,0,0.964518666047,0.0,0.0,0.0,0