timestamp,value,is_anomaly,anomaly_score
2014-04-10 00:04:00,0.910940288947,0,0.5
2014-04-10 00:09:00,0.946265649197,0,0.5
2014-04-10 00:14:00,0.914049915729,0,0.5
2014-04-10 00:19:00,0.932881815525,0,0.5
2014-04-10 00:24:00,0.924423630676,0,0.5
2014-04-10 00:29:00,0.923378796077,0,0.5
2014-04-10 00:34:00,0.957584690685,0,0.5
2014-04-10 00:39:00,0.95188785442,0,0.5
2014-04-10 00:44:00,0.942036556772,0,0.5
2014-04-10 00:49:00,0.920791586594,0,0.5
2014-04-10 00:54:00,0.93892692999,0,0.5
2014-04-10 00:59:00,0.920791586594,0,0.5
2014-04-10 01:04:00,0.941016599188,0,0.5
2014-04-10 01:09:00,0.921314003893,0,0.5
2014-04-10 01:14:00,0.907308244864,0,0.5
2014-04-10 01:19:00,0.856011841459,0,0.5
2014-04-10 01:24:00,0.895914572333,0,0.5
2014-04-10 01:29:00,0.90710922875,0,0.5
2014-04-10 01:34:00,0.887356879427,0,0.5
2014-04-10 01:39:00,0.929075632343,0,0.5
2014-04-10 01:44:00,0.885391595301,0,0.5
2014-04-10 01:49:00,0.89332736285,0,0.5
2014-04-10 01:54:00,0.894397074463,0,0.5
2014-04-10 01:59:00,0.901088991299,0,0.5
2014-04-10 02:04:00,0.89280494555,0,0.5
2014-04-10 02:09:00,0.876211977039,0,0.5
2014-04-10 02:14:00,0.890217736067,0,0.5
2014-04-10 02:19:00,0.889172901468,0,0.5
2014-04-10 02:24:00,0.93168771884,0,0.5
2014-04-10 02:29:00,0.931662841826,0,0.5
2014-04-10 02:34:00,0.933304724767,0,0.5
2014-04-10 02:39:00,0.930642884241,0,0.5
2014-04-10 02:44:00,0.911985123545,0,0.5
2014-04-10 02:49:00,0.898253011674,0,0.5
2014-04-10 02:54:00,0.903701077797,0,0.5
2014-04-10 02:59:00,0.919746751995,0,0.5
2014-04-10 03:04:00,0.941563893502,0,0.5
2014-04-10 03:09:00,0.956042315801,0,0.5
2014-04-10 03:19:00,0.894297566406,0,0.5
2014-04-10 03:24:00,0.929846819785,0,0.5
2014-04-10 03:29:00,0.937906972405,0,0.5
2014-04-10 03:34:00,0.928105428786,0,0.5
2014-04-10 03:39:00,0.929598049642,0,0.5
2014-04-10 03:44:00,0.91352749843,0,0.5
2014-04-10 03:49:00,0.90628828728,0,0.5
2014-04-10 03:54:00,0.94044442786,0,0.5
2014-04-10 03:59:00,0.949823062236,0,0.5
2014-04-10 04:04:00,0.935817303207,0,0.5
2014-04-10 04:09:00,0.945220814598,0,0.5
2014-04-10 04:14:00,0.9143484399,0,0.5
2014-04-10 04:19:00,0.951265929063,0,0.5
2014-04-10 04:24:00,0.917159542512,0,0.5
2014-04-10 04:29:00,0.941862417673,0,0.5
2014-04-10 04:34:00,0.845986404712,0,0.5
2014-04-10 04:39:00,0.92479678589,0,0.5
2014-04-10 04:44:00,0.959674359883,0,0.5
2014-04-10 04:49:00,0.936265089464,0,0.5
2014-04-10 04:54:00,0.937633325248,0,0.5
2014-04-10 04:59:00,0.933230093724,0,0.5
2014-04-10 05:04:00,0.89718330006,0,0.5
2014-04-10 05:09:00,0.881411273019,0,0.5
2014-04-10 05:14:00,0.943081391371,0,0.5
2014-04-10 05:19:00,0.911139305061,0,0.5
2014-04-10 05:24:00,0.923901213376,0,0.5
2014-04-10 05:29:00,0.914721595114,0,0.5
2014-04-10 05:34:00,0.927010840159,0,0.5
2014-04-10 05:39:00,0.931662841826,0,0.5
2014-04-10 05:44:00,0.929324402485,0,0.5
2014-04-10 05:49:00,0.921090110765,0,0.5
2014-04-10 05:54:00,0.906785827565,0,0.5
2014-04-10 05:59:00,0.924423630676,0,0.5
2014-04-10 06:04:00,0.90576586998,0,0.5
2014-04-10 06:09:00,0.93320521671,0,0.5
2014-04-10 06:14:00,0.924423630676,0,0.5
2014-04-10 06:19:00,0.92141351195,0,0.5
2014-04-10 06:24:00,0.88795392777,0,0.5
2014-04-10 06:29:00,0.944350119099,0,0.5
2014-04-10 06:34:00,0.89332736285,0,0.5
2014-04-10 06:39:00,0.927533257458,0,0.5
2014-04-10 06:44:00,0.900765590114,0,0.5
2014-04-10 06:49:00,0.900591451014,0,0.5
2014-04-10 06:54:00,0.905243452681,0,0.5
2014-04-10 06:59:00,0.949300644937,0,0.5
2014-04-10 07:04:00,0.957634444714,0,0.5
2014-04-10 07:09:00,0.905318083724,0,0.5
2014-04-10 07:14:00,0.94831178362,0,0.5
2014-04-10 07:19:00,0.909572053162,0,0.5
2014-04-10 07:24:00,0.916637125212,0,0.5
2014-04-10 07:29:00,0.950345479536,0,0.5
2014-04-10 07:34:00,0.931165301541,0,0.5
2014-04-10 07:39:00,0.934274928323,0,0.5
2014-04-10 07:44:00,0.945146183555,0,0.5
2014-04-10 07:49:00,0.942558974072,0,0.5
2014-04-10 07:54:00,0.929523418599,0,0.5
2014-04-10 07:59:00,0.862778389338,0,0.5
2014-04-10 08:04:00,0.900019279686,0,0.5
2014-04-10 08:09:00,0.881411273019,0,0.5
2014-04-10 08:14:00,0.901984563813,0,0.5
2014-04-10 08:19:00,0.910616887761,0,0.5
2014-04-10 08:24:00,0.879844021121,0,0.5
2014-04-10 08:29:00,0.858599050942,0,0.5
2014-04-10 08:34:00,0.919746751995,0,0.5
2014-04-10 08:39:00,0.942558974072,0,0.5
2014-04-10 08:44:00,0.913477744401,0,0.5
2014-04-10 08:49:00,0.919522858866,0,0.5
2014-04-10 08:54:00,0.940718075017,0,0.5
2014-04-10 08:59:00,0.922856378777,0,0.5
2014-04-10 09:04:00,0.897456947217,0,0.5
2014-04-10 09:09:00,0.915617167628,0,0.5
2014-04-10 09:14:00,0.933230093724,0,0.5
2014-04-10 09:19:00,0.933478863867,0,0.5
2014-04-10 09:24:00,0.929871696799,0,0.5
2014-04-10 09:29:00,0.939076192075,0,0.5
2014-04-10 09:34:00,0.936513859607,0,0.5
2014-04-10 09:39:00,0.944623766256,0,0.5
2014-04-10 09:44:00,0.942757990186,0,0.5
2014-04-10 09:49:00,0.970545615115,0,0.5
2014-04-10 09:54:00,0.934274928323,0,0.5
2014-04-10 09:59:00,0.907308244864,0,0.5
2014-04-10 10:04:00,0.89653649769,0,0.5
2014-04-10 10:09:00,0.961739152067,0,0.5
2014-04-10 10:14:00,0.829642206342,0,0.5
2014-04-10 10:19:00,0.908104309321,0,0.5
2014-04-10 10:24:00,0.894173181335,0,0.5
2014-04-10 10:29:00,0.889695318768,0,0.5
2014-04-10 10:34:00,0.887008601228,0,0.5
2014-04-10 10:39:00,0.878276769222,0,0.5
2014-04-10 10:44:00,0.908552095577,0,0.5
2014-04-10 10:49:00,0.937384555106,0,0.5
2014-04-10 10:54:00,0.907140325018,0,0.5
2014-04-10 10:59:00,0.933230093724,0,0.5
2014-04-10 11:04:00,0.932832061496,0,0.5
2014-04-10 11:09:00,0.937732833305,0,0.5
2014-04-10 11:14:00,0.929697557699,0,0.5
2014-04-10 11:19:00,0.953952646603,0,0.5
2014-04-10 11:24:00,0.942558974072,0,0.5
2014-04-10 11:29:00,0.969600288573,0,0.5
2014-04-10 11:34:00,0.926538176888,0,0.5
2014-04-10 11:39:00,0.901088991299,0,0.5
2014-04-10 11:44:00,0.932334521211,0,0.5
2014-04-10 11:49:00,0.930742392298,0,0.5
2014-04-10 11:54:00,0.928553215043,0,0.5
2014-04-10 11:59:00,0.955669160587,0,0.5
2014-04-10 12:04:00,0.939971764589,0,0.5
2014-04-10 12:09:00,0.888625607155,0,0.5
2014-04-10 12:14:00,0.871037558072,0,0.5
2014-04-10 12:19:00,0.917159542512,0,0.5
2014-04-10 12:24:00,0.963828821265,0,0.5
2014-04-10 12:29:00,0.907059474722,0,0.5
2014-04-10 12:34:00,0.946191018154,0,0.5
2014-04-10 12:39:00,0.918104869054,0,0.5
2014-04-10 12:44:00,0.875192019454,0,0.5
2014-04-10 12:49:00,0.908353079463,0,0.5
2014-04-10 12:54:00,0.920791586594,0,0.5
2014-04-10 12:59:00,0.881212256905,0,0.5
2014-04-10 13:04:00,0.894770229677,0,0.5
2014-04-10 13:09:00,0.862007201896,0,0.5
2014-04-10 13:14:00,0.90576586998,0,0.5
2014-04-10 13:19:00,0.939449347289,0,0.5
2014-04-10 13:24:00,0.937882095391,0,0.5
2014-04-10 13:29:00,0.907830662164,0,0.5
2014-04-10 13:34:00,0.91872679441,0,0.5
2014-04-10 13:39:00,0.919398473795,0,0.5
2014-04-10 13:44:00,0.933777388038,0,0.5
2014-04-10 13:49:00,0.967610127433,0,0.5
2014-04-10 13:54:00,0.951290806077,0,0.5
2014-04-10 13:59:00,0.963555174108,0,0.5
2014-04-10 14:04:00,0.877878736994,0,0.5
2014-04-10 14:09:00,0.895864818305,0,0.5
2014-04-10 14:14:00,0.864818304507,0,0.5
2014-04-10 14:19:00,0.872082392671,0,0.5
2014-04-10 14:24:00,0.884520899802,0,0.5
2014-04-10 14:29:00,0.930120466942,0,0.5
2014-04-10 14:34:00,0.954997481202,0,0.5
2014-04-10 14:39:00,0.88088885572,0,0.5
2014-04-10 14:44:00,0.874793987226,0,0.5
2014-04-10 14:49:00,0.854917252831,0,0.5
2014-04-10 14:54:00,0.84772779571,0,0.5
2014-04-10 14:59:00,0.848747753295,0,0.5
2014-04-10 15:04:00,0.885690119472,0,0.5
2014-04-10 15:09:00,0.89280494555,0,0.5
2014-04-10 15:14:00,0.888128066869,0,0.5
2014-04-10 15:19:00,0.893800026121,0,0.5
2014-04-10 15:24:00,0.911462706246,0,0.5
2014-04-10 15:29:00,0.870515140773,0,0.5
2014-04-10 15:34:00,0.886113028714,0,0.5
2014-04-10 15:39:00,0.917706836825,0,0.5
2014-04-10 15:44:00,0.936339720507,0,0.5
2014-04-10 15:49:00,0.94634028024,0,0.5
2014-04-10 15:54:00,0.88088885572,0,0.5
2014-04-10 15:59:00,0.936339720507,0,0.5
2014-04-10 16:04:00,0.939971764589,0,0.5
2014-04-10 16:09:00,0.935294885908,0,0.5
2014-04-10 16:14:00,0.904721035381,0,0.5
2014-04-10 16:19:00,0.913204097244,0,0.5
2014-04-10 16:24:00,0.926488422859,0,0.5
2014-04-10 16:29:00,0.96484877885,0,0.5
2014-04-10 16:34:00,0.894869737734,0,0.5
2014-04-10 16:39:00,0.879844021121,0,0.5
2014-04-10 16:44:00,0.952410271719,0,0.5
2014-04-10 16:49:00,0.956564733101,0,0.5
2014-04-10 16:54:00,0.923901213376,0,0.5
2014-04-10 16:59:00,0.933230093724,0,0.5
2014-04-10 17:04:00,0.952410271719,0,0.5
2014-04-10 17:09:00,0.95136543712,0,0.5
2014-04-10 17:14:00,0.955519898502,0,0.5
2014-04-10 17:19:00,0.923901213376,0,0.5
2014-04-10 17:24:00,0.914398193929,0,0.5
2014-04-10 17:29:00,0.939449347289,0,0.5
2014-04-10 17:34:00,0.914970365257,0,0.5
2014-04-10 17:39:00,0.945220814598,0,0.5
2014-04-10 17:44:00,0.937906972405,0,0.5
2014-04-10 17:49:00,0.96432636155,0,0.5
2014-04-10 17:54:00,0.934274928323,0,0.5
2014-04-10 17:59:00,0.942061433787,0,0.5
2014-04-10 18:04:00,0.955519898502,0,0.5
2014-04-10 18:09:00,0.986616166328,0,0.5
2014-04-10 18:14:00,0.958306124099,0,0.5
2014-04-10 18:19:00,0.929598049642,0,0.5
2014-04-10 18:24:00,0.922134945364,0,0.5
2014-04-10 18:29:00,0.956042315801,0,0.5
2014-04-10 18:34:00,0.925493342289,0,0.5
2014-04-10 18:39:00,0.910069593447,0,0.5
2014-04-10 18:44:00,0.923702197262,0,0.5
2014-04-10 18:49:00,0.940394673831,0,0.5
2014-04-10 18:54:00,0.959674359883,0,0.5
2014-04-10 18:59:00,0.931165301541,0,0.5
2014-04-10 19:04:00,0.950743511764,0,0.5
2014-04-10 19:09:00,0.953952646603,0,0.5
2014-04-10 19:14:00,0.92596600556,0,0.5
2014-04-10 19:19:00,0.96432636155,0,0.5
2014-04-10 19:24:00,0.928578092057,0,0.5
2014-04-10 19:29:00,0.924946047975,0,0.5
2014-04-10 19:34:00,0.925717235417,0,0.5
2014-04-10 19:39:00,0.956191577887,0,0.5
2014-04-10 19:44:00,0.940519058903,0,0.5
2014-04-10 19:49:00,0.904721035381,0,0.5
2014-04-10 19:54:00,0.927533257458,0,0.5
2014-04-10 19:59:00,0.950345479536,0,0.5
2014-04-10 20:04:00,0.923602689205,0,0.5
2014-04-10 20:09:00,0.940394673831,0,0.5
2014-04-10 20:14:00,0.880839101691,0,0.5
2014-04-10 20:19:00,0.913054835159,0,0.5
2014-04-10 20:24:00,0.938130865534,0,0.5
2014-04-10 20:29:00,0.880217176334,0,0.5
2014-04-10 20:34:00,0.890491383224,0,0.5
2014-04-10 20:39:00,0.948778227637,0,0.5
2014-04-10 20:44:00,0.926488422859,0,0.5
2014-04-10 20:49:00,0.936862137806,0,0.5
2014-04-10 20:54:00,0.91924921171,0,0.5
2014-04-10 20:59:00,0.953728753475,0,0.5
2014-04-10 21:04:00,0.930468745141,0,0.5
2014-04-10 21:09:00,0.930120466942,0,0.5
2014-04-10 21:14:00,0.956614487129,0,0.5
2014-04-10 21:19:00,0.927533257458,0,0.5
2014-04-10 21:24:00,0.952410271719,0,0.5
2014-04-10 21:29:00,0.948902612708,0,0.5
2014-04-10 21:34:00,0.916239092984,0,0.5
2014-04-10 21:39:00,0.933230093724,0,0.5
2014-04-10 21:44:00,0.962759109652,0,0.5
2014-04-10 21:49:00,0.929125386371,0,0.5
2014-04-10 21:54:00,0.909646684205,0,0.5
2014-04-10 21:59:00,0.89280494555,0,0.5
2014-04-10 22:04:00,0.919746751995,0,0.5
2014-04-10 22:09:00,0.935792426193,0,0.5
2014-04-10 22:14:00,0.908875496763,0,0.5
2014-04-10 22:19:00,0.948778227637,0,0.5
2014-04-10 22:24:00,0.956564733101,0,0.5
2014-04-10 22:29:00,0.949823062236,0,0.5
2014-04-10 22:34:00,0.946713435453,0,0.5
2014-04-10 22:39:00,0.955818422673,0,0.5
2014-04-10 22:44:00,0.941986802744,0,0.5
2014-04-10 22:49:00,0.948778227637,0,0.5
2014-04-10 22:54:00,0.928055674758,0,0.5
2014-04-10 22:59:00,0.937683079277,0,0.5
2014-04-10 23:04:00,0.931314563626,0,0.5
2014-04-10 23:09:00,0.92293100982,0,0.5
2014-04-10 23:14:00,0.916612248198,0,0.5
2014-04-10 23:19:00,0.917408312654,0,0.5
2014-04-10 23:24:00,0.914199177815,0,0.5
2014-04-10 23:29:00,0.934797345623,0,0.5
2014-04-10 23:34:00,0.955992561773,0,0.5
2014-04-10 23:39:00,0.950843019821,0,0.5
2014-04-10 23:44:00,0.942558974072,0,0.5
2014-04-10 23:49:00,0.949375275979,0,0.5
2014-04-10 23:54:00,0.9291751404,0,0.5
2014-04-10 23:59:00,0.924025598448,0,0.5
2014-04-11 00:04:00,0.933528617895,0,0.5
2014-04-11 00:09:00,0.957534936657,0,0.5
2014-04-11 00:14:00,0.951464945177,0,0.5
2014-04-11 00:19:00,0.931016039455,0,0.5
2014-04-11 00:24:00,0.912159262645,0,0.5
2014-04-11 00:29:00,0.935145623822,0,0.5
2014-04-11 00:34:00,0.958629525284,0,0.5
2014-04-11 00:39:00,0.928553215043,0,0.5
2014-04-11 00:44:00,0.907308244864,0,0.5
2014-04-11 00:49:00,0.957584690685,0,0.5
2014-04-11 00:54:00,0.924423630676,0,0.5
2014-04-11 00:59:00,0.961216734767,0,0.5
2014-04-11 01:04:00,0.950121586407,0,0.5
2014-04-11 01:09:00,0.933578371924,0,0.5
2014-04-11 01:14:00,0.907930170221,0,0.5
2014-04-11 01:19:00,0.907308244864,0,0.5
2014-04-11 01:24:00,0.958107107985,0,0.5
2014-04-11 01:29:00,0.974177659197,0,0.5
2014-04-11 01:34:00,0.931662841826,0,0.5
2014-04-11 01:39:00,0.928876616229,0,0.5
2014-04-11 01:44:00,0.883525819231,0,0.5
2014-04-11 01:49:00,0.940494181888,0,0.5
2014-04-11 01:54:00,0.96770963549,0,0.5
2014-04-11 01:59:00,0.930319483056,0,0.5
2014-04-11 02:04:00,0.95188785442,0,0.5
2014-04-11 02:09:00,0.960147023154,0,0.5
2014-04-11 02:14:00,0.974700076497,0,0.5
2014-04-11 02:19:00,0.947758270052,0,0.5
2014-04-11 02:24:00,0.933429109838,0,0.5
2014-04-11 02:29:00,0.961913291167,0,0.5
2014-04-11 02:34:00,0.965893613449,0,0.5
2014-04-11 02:39:00,0.963281526951,0,0.5
2014-04-11 02:44:00,0.93840451269,0,0.5
2014-04-11 02:49:00,0.967386234304,0,0.5
2014-04-11 02:54:00,0.949300644937,0,0.5
2014-04-11 02:59:00,0.956042315801,0,0.5
2014-04-11 03:04:00,0.970247090944,0,0.5
2014-04-11 03:09:00,0.961913291167,0,0.5
2014-04-11 03:14:00,0.950917650864,0,0.5
2014-04-11 03:19:00,0.934797345623,0,0.5
2014-04-11 03:24:00,0.960694317468,0,0.5
2014-04-11 03:29:00,0.957584690685,0,0.5
2014-04-11 03:34:00,0.936439228564,0,0.5
2014-04-11 03:39:00,0.912507540845,0,0.5
2014-04-11 03:44:00,0.972809423413,0,0.5
2014-04-11 03:49:00,0.921289126879,0,0.5
2014-04-11 03:54:00,0.93641435155,0,0.5
2014-04-11 03:59:00,0.947210975739,0,0.5
2014-04-11 04:04:00,0.925468465275,0,0.5
2014-04-11 04:09:00,0.959151942584,0,0.5
2014-04-11 04:14:00,0.931662841826,0,0.5
2014-04-11 04:19:00,0.955669160587,0,0.5
2014-04-11 04:24:00,0.958206616042,0,0.5
2014-04-11 04:29:00,0.953778507504,0,0.5
2014-04-11 04:34:00,0.935294885908,0,0.5
2014-04-11 04:39:00,0.986616166328,0,0.5
2014-04-11 04:44:00,0.927508380444,0,0.5
2014-04-11 04:49:00,0.921314003893,0,0.5
2014-04-11 04:54:00,0.978307243565,0,0.5
2014-04-11 04:59:00,0.978307243565,0,0.5
2014-04-11 05:04:00,0.96601799852,0,0.5
2014-04-11 05:09:00,0.956042315801,0,0.5
2014-04-11 05:14:00,0.968903732174,0,0.5
2014-04-11 05:19:00,0.942558974072,0,0.5
2014-04-11 05:24:00,0.933752511024,0,0.5
2014-04-11 05:29:00,0.962261569366,0,0.5
2014-04-11 05:34:00,0.980919330062,0,0.5
2014-04-11 05:39:00,0.976341959438,0,0.5
2014-04-11 05:44:00,0.922856378777,0,0.5
2014-04-11 05:49:00,0.974177659197,0,0.5
2014-04-11 05:54:00,0.975720034082,0,0.5
2014-04-11 05:59:00,0.946937328582,0,0.5
2014-04-11 06:04:00,0.91924921171,0,0.5
2014-04-11 06:09:00,0.972610407299,0,0.5
2014-04-11 06:14:00,0.953952646603,0,0.5
2014-04-11 06:19:00,0.921040356736,0,0.5
2014-04-11 06:24:00,0.93168771884,0,0.5
2014-04-11 06:29:00,0.957584690685,0,0.5
2014-04-11 06:34:00,0.942907252272,0,0.5
2014-04-11 06:39:00,0.930891654384,0,0.5
2014-04-11 06:44:00,0.937608448234,0,0.5
2014-04-11 06:49:00,0.936165581407,0,0.5
2014-04-11 06:54:00,0.943603808671,0,0.5
2014-04-11 06:59:00,0.914248931843,0,0.5
2014-04-11 07:04:00,0.923378796077,0,0.5
2014-04-11 07:09:00,0.924423630676,0,0.5
2014-04-11 07:14:00,0.868450348589,0,0.5
2014-04-11 07:19:00,0.911985123545,0,0.5
2014-04-11 07:24:00,0.943081391371,0,0.5
2014-04-11 07:29:00,0.960694317468,0,0.5
2014-04-11 07:34:00,0.972112867014,0,0.5
2014-04-11 07:39:00,0.945146183555,0,0.5
2014-04-11 07:44:00,0.936339720507,0,0.5
2014-04-11 07:49:00,0.935817303207,0,0.5
2014-04-11 07:54:00,0.953032197076,0,0.5
2014-04-11 07:59:00,0.902805505283,0,0.5
2014-04-11 08:04:00,0.915841060756,0,0.5
2014-04-11 08:09:00,0.891685479909,0,0.5
2014-04-11 08:14:00,0.91738343564,0,0.5
2014-04-11 08:19:00,0.945245691612,0,0.5
2014-04-11 08:24:00,0.943081391371,0,0.5
2014-04-11 08:29:00,0.924423630676,0,0.84154006226
2014-04-11 08:34:00,0.902656243198,0,0.884011375037
2014-04-11 08:39:00,0.956291085944,0,0.859276497646
2014-04-11 08:44:00,0.970943647343,0,0.834887719059
2014-04-11 08:49:00,0.966913571033,0,0.72692192322
2014-04-11 08:54:00,0.947733393038,0,0.662537278325
2014-04-11 08:59:00,0.922856378777,0,0.594614221229
2014-04-11 09:04:00,0.916637125212,0,0.596283770888
2014-04-11 09:09:00,0.966540415819,0,0.548072633183
2014-04-11 09:14:00,0.953430229304,0,0.524337801968
2014-04-11 09:19:00,0.925219695132,0,0.522507376417
2014-04-11 09:24:00,0.903875216896,0,0.519703630083
2014-04-11 09:29:00,0.928553215043,0,0.561834468516
2014-04-11 09:34:00,0.920716955551,0,0.672060008382
2014-04-11 09:39:00,0.962709355623,0,0.680780302175
2014-04-11 09:44:00,0.955519898502,0,0.664554711622
2014-04-11 09:49:00,0.96619213762,0,0.569351957902
2014-04-11 09:54:00,0.939399593261,0,0.517270442182
2014-04-11 09:59:00,0.925518219303,0,0.610318074791
2014-04-11 10:04:00,0.916487863127,0,0.689148091511
2014-04-11 10:09:00,0.963281526951,0,0.607836586513
2014-04-11 10:14:00,0.931289686612,0,0.545938263017
2014-04-11 10:19:00,0.879321603821,0,0.655291871518
2014-04-11 10:24:00,0.937384555106,0,0.619213581523
2014-04-11 10:29:00,0.942857498243,0,0.6620380932
2014-04-11 10:34:00,0.942459466015,0,0.689148091511
2014-04-11 10:39:00,0.931165301541,0,0.756681148406
2014-04-11 10:44:00,0.923378796077,0,0.784699465814
2014-04-11 10:49:00,0.920791586594,0,0.792593471773
2014-04-11 10:54:00,0.929075632343,0,0.771191583629
2014-04-11 10:59:00,0.945668600855,0,0.800795482736
2014-04-11 11:04:00,0.932259890168,0,0.799227327326
2014-04-11 11:09:00,0.928553215043,0,0.710423704004
2014-04-11 11:14:00,0.950295725507,0,0.684414586321
2014-04-11 11:19:00,0.919746751995,0,0.730230673918
2014-04-11 11:24:00,0.957062273386,0,0.701666860576
2014-04-11 11:29:00,0.971590449714,0,0.616309998022
2014-04-11 11:34:00,0.939523978332,0,0.580271677552
2014-04-11 11:39:00,0.928801985186,0,0.562117502541
2014-04-11 11:44:00,0.937906972405,0,0.541951664667
2014-04-11 11:49:00,0.963356157994,0,0.501289239552
2014-04-11 11:54:00,0.932608168368,0,0.50048704678
2014-04-11 11:59:00,0.924697277833,0,0.50936762939
2014-04-11 12:04:00,0.961216734767,0,0.515781930976
2014-04-11 12:09:00,0.954201416746,0,0.594251700391
2014-04-11 12:14:00,0.960967964625,0,0.602971290554
2014-04-11 12:19:00,0.942981883314,0,0.538188995363
2014-04-11 12:24:00,0.855489424159,0,0.651475136345
2014-04-11 12:29:00,0.901611408599,0,0.707567543809
2014-04-11 12:34:00,0.928777108171,0,0.725414981413
2014-04-11 12:39:00,0.905541976852,0,0.824537811712
2014-04-11 12:44:00,0.934250051309,0,0.822079321728
2014-04-11 12:49:00,0.894894614748,0,0.863326152007
2014-04-11 12:54:00,0.914572333029,0,0.913824726365
2014-04-11 12:59:00,0.936289966478,0,0.92896183047
2014-04-11 13:04:00,0.905243452681,0,0.963259487395
2014-04-11 13:09:00,0.921612528064,0,0.972139322141
2014-04-11 13:14:00,0.900865098171,0,0.950654138218
2014-04-11 13:19:00,0.874918372297,0,0.964489509921
2014-04-11 13:24:00,0.900268049829,0,0.975577490268
2014-04-11 13:29:00,0.923901213376,0,0.968835206484
2014-04-11 13:34:00,0.859643885541,0,0.989124462974
2014-04-11 13:39:00,0.893849780149,0,0.989296249158
2014-04-11 13:44:00,0.919224334695,0,0.988512818729
2014-04-11 13:49:00,0.877779228937,0,0.995495018156
2014-04-11 13:54:00,0.904198618082,0,0.995573877471
2014-04-11 13:59:00,0.906785827565,0,0.996567376926
2014-04-11 14:04:00,0.86792793129,0,0.998094981309
2014-04-11 14:09:00,0.905243452681,0,0.996719997751
2014-04-11 14:14:00,0.925468465275,0,0.994957425378
2014-04-11 14:19:00,0.905691238938,0,0.996297197258
2014-04-11 14:24:00,0.922557854606,0,0.989687921632
2014-04-11 14:29:00,0.878500662351,0,0.991878605763
2014-04-11 14:34:00,0.868972765889,0,0.996465162696
2014-04-11 14:39:00,0.88071471662,0,0.996281288432
2014-04-11 14:44:00,0.874669602154,0,0.997793911285
2014-04-11 14:49:00,0.918303885168,0,0.997286934185
2014-04-11 14:54:00,0.895441909062,0,0.995625762937
2014-04-11 14:59:00,0.914049915729,0,0.99492805338
2014-04-11 15:04:00,0.924946047975,0,0.994972054498
2014-04-11 15:09:00,0.896785267832,0,0.99567162925
2014-04-11 15:14:00,0.868450348589,0,0.998346787486
2014-04-11 15:19:00,0.883476065203,0,0.998186994063
2014-04-11 15:24:00,0.970023197816,0,0.989979172086
2014-04-11 15:29:00,0.933230093724,0,0.978430750047
2014-04-11 15:34:00,0.917159542512,0,0.962219861122
2014-04-11 15:39:00,0.942981883314,0,0.94893023637
2014-04-11 15:44:00,0.954425309874,0,0.902171512276
2014-04-11 15:49:00,0.912507540845,0,0.903700574228
2014-04-11 15:54:00,0.91872679441,0,0.909688073761
2014-04-11 15:59:00,0.888128066869,0,0.91755618028
2014-04-11 16:04:00,0.867704038161,0,0.918209514031
2014-04-11 16:09:00,0.878824063536,0,0.92219426472
2014-04-11 16:14:00,0.894372197449,0,0.968327519221
2014-04-11 16:19:00,0.83762772792,0,0.991995893327
2014-04-11 16:24:00,0.87429644694,0,0.996048672941
2014-04-11 16:29:00,0.857429831272,0,0.999184040324
2014-04-11 16:34:00,0.906910212636,0,0.999692002023
2014-04-11 16:39:00,0.850265251165,0,0.999922783707
2014-04-11 16:44:00,0.873624767555,0,0.999973752358
2014-04-11 16:49:00,0.887630526584,0,0.99997407228
2014-04-11 16:54:00,0.913029958144,0,0.99992327266
2014-04-11 16:59:00,0.931662841826,0,0.99974961422
2014-04-11 17:04:00,0.866883096691,0,0.999863178905
2014-04-11 17:09:00,0.895914572333,0,0.999520917168
2014-04-11 17:14:00,0.887879296727,0,0.999368174479
2014-04-11 17:19:00,0.89280494555,0,0.998735580425
2014-04-11 17:24:00,0.873102350256,0,0.999347915527
2014-04-11 17:29:00,0.869992723473,0,0.99903618957
2014-04-11 17:34:00,0.891486463795,0,0.998641379069
2014-04-11 17:39:00,0.919746751995,0,0.997542959736
2014-04-11 17:44:00,0.920791586594,0,0.99717820005
2014-04-11 17:49:00,0.890740153367,0,0.96457770492
2014-04-11 17:54:00,0.914572333029,0,0.943338575661
2014-04-11 17:59:00,0.974700076497,0,0.887808947376
2014-04-11 18:04:00,0.924050475462,0,0.852170471206
2014-04-11 18:09:00,0.938976684018,0,0.796686906153
2014-04-11 18:14:00,0.956390594001,0,0.670144276765
2014-04-11 18:19:00,0.959151942584,0,0.509302325359
2014-04-11 18:24:00,0.962261569366,0,0.620841299748
2014-04-11 18:29:00,0.933279847753,0,0.64467546889
2014-04-11 18:34:00,0.949300644937,0,0.692981587953
2014-04-11 18:39:00,0.958107107985,0,0.793718185849
2014-04-11 18:44:00,0.959151942584,0,0.847998400771
2014-04-11 18:49:00,0.96484877885,0,0.836903923383
2014-04-11 18:54:00,0.960196777183,0,0.875106442165
2014-04-11 18:59:00,0.952932689019,0,0.888033813999
2014-04-11 19:04:00,0.927533257458,0,0.860190146088
2014-04-11 19:09:00,0.953455106318,0,0.854179899478
2014-04-11 19:14:00,0.956564733101,0,0.847998400771
2014-04-11 19:19:00,0.969600288573,0,0.884493783509
2014-04-11 19:24:00,0.916811264312,0,0.852174272781
2014-04-11 19:29:00,0.930642884241,0,0.820521871669
2014-04-11 19:34:00,0.948255810338,0,0.806863268685
2014-04-11 19:39:00,0.966391153734,0,0.808834337315
2014-04-11 19:44:00,0.9713914336,0,0.822768047678
2014-04-11 19:49:00,0.937260170034,0,0.803077761698
2014-04-11 19:54:00,0.948529457495,0,0.829163297739
2014-04-11 19:59:00,0.97676486868,0,0.855400926962
2014-04-11 20:04:00,0.948280687352,0,0.846405552195
2014-04-11 20:09:00,0.970023197816,0,0.846873562472
2014-04-11 20:14:00,0.953430229304,0,0.883835486734
2014-04-11 20:19:00,0.941016599188,0,0.893047297877
2014-04-11 20:24:00,0.92497092499,0,0.87160191225
2014-04-11 20:29:00,0.929598049642,0,0.831954378088
2014-04-11 20:34:00,0.948255810338,0,0.803368059487
2014-04-11 20:39:00,0.957709075757,0,0.828779065949
2014-04-11 20:44:00,0.95054449565,0,0.831164125009
2014-04-11 20:49:00,0.95492285016,0,0.804173080938
2014-04-11 20:54:00,0.933752511024,0,0.784848895781
2014-04-11 20:59:00,0.953455106318,0,0.7615157263
2014-04-11 21:04:00,0.913253851273,0,0.699611799372
2014-04-11 21:09:00,0.929697557699,0,0.680946043856
2014-04-11 21:14:00,0.944325242084,0,0.712555148748
2014-04-11 21:19:00,0.935021238751,0,0.721139087545
2014-04-11 21:24:00,0.930642884241,0,0.692818075102
2014-04-11 21:29:00,0.93892692999,0,0.66129912498
2014-04-11 21:34:00,0.901088991299,0,0.573272150936
2014-04-11 21:39:00,0.888152943884,0,0.550754408228
2014-04-11 21:44:00,0.956465225044,0,0.508513446418
2014-04-11 21:49:00,0.907855539178,0,0.592743478986
2014-04-11 21:54:00,0.936513859607,0,0.550063730526
2014-04-11 21:59:00,0.935817303207,0,0.53871649485
2014-04-11 22:04:00,0.895914572333,0,0.62688498153
2014-04-11 22:09:00,0.932707676425,0,0.63097422638
2014-04-11 22:14:00,0.883898974445,0,0.709886445044
2014-04-11 22:19:00,0.922333961478,0,0.735867679037
2014-04-11 22:24:00,0.901312884428,0,0.735525155859
2014-04-11 22:29:00,0.947733393038,0,0.637189381498
2014-04-11 22:34:00,0.882431230604,0,0.757163825044
2014-04-11 22:39:00,0.892282528251,0,0.779362639708
2014-04-11 22:44:00,0.887630526584,0,0.84102190669
2014-04-11 22:49:00,0.899621247458,0,0.878587205655
2014-04-11 22:54:00,0.896436989633,0,0.878093697124
2014-04-11 22:59:00,0.894372197449,0,0.910655508544
2014-04-11 23:04:00,0.870515140773,0,0.920345292624
2014-04-11 23:09:00,0.915567413599,0,0.924931067711
2014-04-11 23:14:00,0.902656243198,0,0.924037049892
2014-04-11 23:19:00,0.929075632343,0,0.935747407023
2014-04-11 23:24:00,0.89280494555,0,0.92942281406
2014-04-11 23:29:00,0.885018440087,0,0.933899579514
2014-04-11 23:34:00,0.900566574,0,0.925768028795
2014-04-11 23:39:00,0.90628828728,0,0.921289259606
2014-04-11 23:44:00,0.945146183555,0,0.882186344163
2014-04-11 23:49:00,0.905243452681,0,0.87184232518
2014-04-11 23:54:00,0.904571773296,0,0.835433678901
2014-04-11 23:59:00,0.895392155034,0,0.857740040507
2014-04-12 00:04:00,0.927981043715,0,0.829395297784
2014-04-12 00:09:00,0.897332562146,0,0.864385927677
2014-04-12 00:14:00,0.971615326728,0,0.767808133464
2014-04-12 00:19:00,0.941340000373,0,0.680191785671
2014-04-12 00:24:00,0.954624325988,0,0.585276353879
2014-04-12 00:29:00,0.941514139473,0,0.520202338607
2014-04-12 00:34:00,0.963405912022,0,0.513855739854
2014-04-12 00:39:00,0.958629525284,0,0.611956287228
2014-04-12 00:44:00,0.913950407672,0,0.628651803318
2014-04-12 00:49:00,0.960744071497,0,0.736937232328
2014-04-12 00:54:00,0.971142663458,0,0.798365060791
2014-04-12 00:59:00,0.910865657904,0,0.815697390761
2014-04-12 01:04:00,0.900865098171,0,0.71504863046
2014-04-12 01:09:00,0.966913571033,0,0.754210855986
2014-04-12 01:14:00,0.949300644937,0,0.746303401514
2014-04-12 01:19:00,0.954475063903,0,0.765319645813
2014-04-12 01:24:00,0.950793265792,0,0.746824764448
2014-04-12 01:29:00,0.912507540845,0,0.673219777328
2014-04-12 01:34:00,0.973282086684,0,0.766176228837
2014-04-12 01:39:00,0.974177659197,0,0.784984909534
2014-04-12 01:44:00,0.939449347289,0,0.739210194132
2014-04-12 01:49:00,0.974177659197,0,0.82562550232
2014-04-12 01:54:00,0.947733393038,0,0.876204129175
2014-04-12 01:59:00,0.950345479536,0,0.859646105998
2014-04-12 02:04:00,0.951390314134,0,0.861813657011
2014-04-12 02:09:00,0.969500780516,0,0.876336123969
2014-04-12 02:14:00,0.956614487129,0,0.881960443477
2014-04-12 02:19:00,0.951116666978,0,0.914721810831
2014-04-12 02:24:00,0.941514139473,0,0.888335957604
2014-04-12 02:29:00,0.958480263199,0,0.873330503006
2014-04-12 02:34:00,0.973132824598,0,0.903913194681
2014-04-12 02:39:00,0.937285047049,0,0.870097492995
2014-04-12 02:44:00,0.965371196149,0,0.887172585444
2014-04-12 02:49:00,0.962137184295,0,0.89765540442
2014-04-12 02:54:00,0.957584690685,0,0.902869697504
2014-04-12 02:59:00,0.952509779776,0,0.888085762914
2014-04-12 03:04:00,0.913029958144,0,0.843013964484
2014-04-12 03:09:00,0.943504300614,0,0.8340598985
2014-04-12 03:14:00,0.944723274313,0,0.837874139029
2014-04-12 03:19:00,0.937384555106,0,0.811749614886
2014-04-12 03:24:00,0.946713435453,0,0.77558819404
2014-04-12 03:29:00,0.975222493796,0,0.826320292355
2014-04-12 03:34:00,0.983506539545,0,0.847764044536
2014-04-12 03:39:00,0.979352078164,0,0.866421588327
2014-04-12 03:44:00,0.963803944251,0,0.872758217606
2014-04-12 03:49:00,0.972610407299,0,0.891796737527
2014-04-12 03:54:00,0.971068032415,0,0.935126353801
2014-04-12 03:59:00,0.951415191149,0,0.939803093738
2014-04-12 04:04:00,0.978879414893,0,0.957037242332
2014-04-12 04:09:00,0.949947447307,0,0.962271548393
2014-04-12 04:14:00,0.952584410819,0,0.964532695677
2014-04-12 04:19:00,0.964276607522,0,0.960223417278
2014-04-12 04:24:00,0.943504300614,0,0.9407398274
2014-04-12 04:29:00,0.942558974072,0,0.916846630561
2014-04-12 04:34:00,0.960171900169,0,0.914142131764
2014-04-12 04:39:00,0.96432636155,0,0.907728192091
2014-04-12 04:44:00,0.965893613449,0,0.903545846823
2014-04-12 04:49:00,0.956415471015,0,0.907589658495
2014-04-12 04:54:00,0.935941688279,0,0.868574466311
2014-04-12 04:59:00,0.972162621042,0,0.889986204801
2014-04-12 05:04:00,0.962858617709,0,0.898993530688
2014-04-12 05:09:00,0.963281526951,0,0.898145413061
2014-04-12 05:14:00,0.959301204669,0,0.91100703863
2014-04-12 05:19:00,0.955594529545,0,0.920676631852
2014-04-12 05:24:00,0.936339720507,0,0.902355151998
2014-04-12 05:29:00,0.931165301541,0,0.871959006038
2014-04-12 05:34:00,0.982063672718,0,0.887515648409
2014-04-12 05:39:00,0.958107107985,0,0.889061520785
2014-04-12 05:44:00,0.953952646603,0,0.904583992305
2014-04-12 05:49:00,0.91924921171,0,0.85401143104
2014-04-12 05:54:00,0.981441747361,0,0.873504320485
2014-04-12 05:59:00,0.950843019821,0,0.860668627882
2014-04-12 06:04:00,0.927533257458,0,0.82397908006
2014-04-12 06:09:00,0.912109508617,0,0.764737765933
2014-04-12 06:14:00,0.916338601041,0,0.734175534085
2014-04-12 06:19:00,0.926985963145,0,0.727544354801
2014-04-12 06:24:00,0.892282528251,0,0.569016652458
2014-04-12 06:29:00,0.924174860533,0,0.504299053228
2014-04-12 06:34:00,0.924946047975,0,0.55118011065
2014-04-12 06:39:00,0.928055674758,0,0.534392119919
2014-04-12 06:44:00,0.93892692999,0,0.614345146558
2014-04-12 06:49:00,0.882431230604,0,0.732200705932
2014-04-12 06:54:00,0.945146183555,0,0.703614965824
2014-04-12 06:59:00,0.921065233751,0,0.68856277477
2014-04-12 07:04:00,0.945967125026,0,0.636594799519