timestamp,value,is_anomaly,anomaly_score
2014-04-01 00:00:00,0.00864342399703703,0,0.00864342399703703
2014-04-01 00:05:00,0.015490690445332722,0,0.015490690445332722
2014-04-01 00:10:00,0.03520971423152438,0,0.03520971423152438
2014-04-01 00:15:00,0.016616688005072273,0,0.016616688005072273
2014-04-01 00:20:00,0.007048448586266289,0,0.007048448586266289
2014-04-01 00:25:00,0.026322054075371748,0,0.026322054075371748
2014-04-01 00:30:00,0.0037227446439012,0,0.0037227446439012
2014-04-01 00:35:00,0.02777216009212688,0,0.02777216009212688
2014-04-01 00:40:00,0.03358487143159992,0,0.03358487143159992
2014-04-01 00:45:00,0.030548554586588512,0,0.030548554586588512
2014-04-01 00:50:00,0.005918464063860239,0,0.005918464063860239
2014-04-01 00:55:00,0.02118612058000365,0,0.02118612058000365
2014-04-01 01:00:00,0.007375661157388684,0,0.007375661157388684
2014-04-01 01:05:00,0.017041700487111733,0,0.017041700487111733
2014-04-01 01:10:00,0.01888510738540268,0,0.01888510738540268
2014-04-01 01:15:00,0.007013062124710897,0,0.007013062124710897
2014-04-01 01:20:00,0.02096124413012316,0,0.02096124413012316
2014-04-01 01:25:00,0.007190601138899506,0,0.007190601138899506
2014-04-01 01:30:00,0.03270492737367438,0,0.03270492737367438
2014-04-01 01:35:00,0.01321920174081555,0,0.01321920174081555
2014-04-01 01:40:00,0.010808217139777336,0,0.010808217139777336
2014-04-01 01:45:00,0.003659601050938007,0,0.003659601050938007
2014-04-01 01:50:00,0.028206383407841564,0,0.028206383407841564
2014-04-01 01:55:00,0.014386599740995768,0,0.014386599740995768
2014-04-01 02:00:00,0.020605871035860326,0,0.020605871035860326
2014-04-01 02:05:00,0.022442401507382963,0,0.022442401507382963
2014-04-01 02:10:00,0.03248479104084662,0,0.03248479104084662
2014-04-01 02:15:00,0.031483681839233474,0,0.031483681839233474
2014-04-01 02:20:00,0.005918988168994224,0,0.005918988168994224
2014-04-01 02:25:00,0.009092407613399585,0,0.009092407613399585
2014-04-01 02:30:00,0.02245806307376705,0,0.02245806307376705
2014-04-01 02:35:00,0.006228267958721946,0,0.006228267958721946
2014-04-01 02:40:00,0.033428699588882095,0,0.033428699588882095
2014-04-01 02:45:00,0.013638888860480572,0,0.013638888860480572
2014-04-01 02:50:00,0.004784451852918328,0,0.004784451852918328
2014-04-01 02:55:00,0.005850751777005403,0,0.005850751777005403
2014-04-01 03:00:00,0.022805775668463996,0,0.022805775668463996
2014-04-01 03:05:00,0.009256820016257428,0,0.009256820016257428
2014-04-01 03:10:00,0.020816441021027303,0,0.020816441021027303
2014-04-01 03:15:00,0.0058044088688451,0,0.0058044088688451
2014-04-01 03:20:00,0.017058838468801626,0,0.017058838468801626
2014-04-01 03:25:00,0.008542971089615603,0,0.008542971089615603
2014-04-01 03:30:00,0.03350853442582124,0,0.03350853442582124
2014-04-01 03:35:00,0.014902943068645326,0,0.014902943068645326
2014-04-01 03:40:00,0.016348662563403754,0,0.016348662563403754
2014-04-01 03:45:00,0.01417717844161199,0,0.01417717844161199
2014-04-01 03:50:00,0.011060877360536923,0,0.011060877360536923
2014-04-01 03:55:00,0.002968001600478417,0,0.002968001600478417
2014-04-01 04:00:00,0.007785401976793701,0,0.007785401976793701
2014-04-01 04:05:00,0.0283768471877938,0,0.0283768471877938
2014-04-01 04:10:00,0.0063224978439832755,0,0.0063224978439832755
2014-04-01 04:15:00,0.03192580513601319,0,0.03192580513601319
2014-04-01 04:20:00,0.013732573778842513,0,0.013732573778842513
2014-04-01 04:25:00,0.004254145010554155,0,0.004254145010554155
2014-04-01 04:30:00,0.03268819760923385,0,0.03268819760923385
2014-04-01 04:35:00,0.005456837472804534,0,0.005456837472804534
2014-04-01 04:40:00,0.007314722117096508,0,0.007314722117096508
2014-04-01 04:45:00,0.018040548871402263,0,0.018040548871402263
2014-04-01 04:50:00,0.025129777890150768,0,0.025129777890150768
2014-04-01 04:55:00,0.021617841205055454,0,0.021617841205055454
2014-04-01 05:00:00,0.0011291335808248425,0,0.0011291335808248425
2014-04-01 05:05:00,0.029029480960188144,0,0.029029480960188144
2014-04-01 05:10:00,0.015282061116369478,0,0.015282061116369478
2014-04-01 05:15:00,0.033338680400741234,0,0.033338680400741234
2014-04-01 05:20:00,0.028440323821440024,0,0.028440323821440024
2014-04-01 05:25:00,0.008599016965945488,0,0.008599016965945488
2014-04-01 05:30:00,0.025358905789395,0,0.025358905789395
2014-04-01 05:35:00,0.0005067843510429454,0,0.0005067843510429454
2014-04-01 05:40:00,0.01814816865240499,0,0.01814816865240499
2014-04-01 05:45:00,0.01757622643441803,0,0.01757622643441803
2014-04-01 05:50:00,0.03504574589352073,0,0.03504574589352073
2014-04-01 05:55:00,0.001570446858332917,0,0.001570446858332917
2014-04-01 06:00:00,0.03002856536826682,0,0.03002856536826682
2014-04-01 06:05:00,0.016783143816900215,0,0.016783143816900215
2014-04-01 06:10:00,0.021973020264619076,0,0.021973020264619076
2014-04-01 06:15:00,0.021248734734845703,0,0.021248734734845703
2014-04-01 06:20:00,0.012964944466832792,0,0.012964944466832792
2014-04-01 06:25:00,0.012281459552860969,0,0.012281459552860969
2014-04-01 06:30:00,0.030754114489507108,0,0.030754114489507108
2014-04-01 06:35:00,0.018192927546968662,0,0.018192927546968662
2014-04-01 06:40:00,0.007610957006424201,0,0.007610957006424201
2014-04-01 06:45:00,0.020241004502346456,0,0.020241004502346456
2014-04-01 06:50:00,0.030335192851759164,0,0.030335192851759164
2014-04-01 06:55:00,0.024972649722969645,0,0.024972649722969645
2014-04-01 07:00:00,0.02864089288870085,0,0.02864089288870085
2014-04-01 07:05:00,0.03178983250510898,0,0.03178983250510898
2014-04-01 07:10:00,0.022631221561022243,0,0.022631221561022243
2014-04-01 07:15:00,0.016688719954234682,0,0.016688719954234682
2014-04-01 07:20:00,0.033720255363109165,0,0.033720255363109165
2014-04-01 07:25:00,0.014401023829724843,0,0.014401023829724843
2014-04-01 07:30:00,0.00024274075004503443,0,0.00024274075004503443
2014-04-01 07:35:00,0.001294041609537493,0,0.001294041609537493
2014-04-01 07:40:00,0.006203280018186156,0,0.006203280018186156
2014-04-01 07:45:00,0.026677889842648902,0,0.026677889842648902
2014-04-01 07:50:00,0.035551657314414245,0,0.035551657314414245
2014-04-01 07:55:00,0.0060443737026701656,0,0.0060443737026701656
2014-04-01 08:00:00,0.03433981654012379,0,0.03433981654012379
2014-04-01 08:05:00,0.02888649705087793,0,0.02888649705087793
2014-04-01 08:10:00,0.0165607802007259,0,0.0165607802007259
2014-04-01 08:15:00,0.029877793953537436,0,0.029877793953537436
2014-04-01 08:20:00,0.00603540190031866,0,0.00603540190031866
2014-04-01 08:25:00,0.008095427710825377,0,0.008095427710825377
2014-04-01 08:30:00,0.008873556029373945,0,0.008873556029373945
2014-04-01 08:35:00,0.006677860075831637,0,0.006677860075831637
2014-04-01 08:40:00,0.028374526689033636,0,0.028374526689033636
2014-04-01 08:45:00,0.009851287182313543,0,0.009851287182313543
2014-04-01 08:50:00,0.0234424331090943,0,0.0234424331090943
2014-04-01 08:55:00,0.0121084436811779,0,0.0121084436811779
2014-04-01 09:00:00,0.704484053690313,0,0.704484053690313
2014-04-01 09:05:00,0.7681704901546076,0,0.7681704901546076
2014-04-01 09:10:00,0.797256858372618,0,0.797256858372618
2014-04-01 09:15:00,0.6959256609769012,0,0.6959256609769012
2014-04-01 09:20:00,0.7014072736018712,0,0.7014072736018712
2014-04-01 09:25:00,0.7046603084113318,0,0.7046603084113318
2014-04-01 09:30:00,0.7381563210651425,0,0.7381563210651425
2014-04-01 09:35:00,0.7229012436197004,0,0.7229012436197004
2014-04-01 09:40:00,0.779229371053559,0,0.779229371053559
2014-04-01 09:45:00,0.7428734319813622,0,0.7428734319813622
2014-04-01 09:50:00,0.7440466276961574,0,0.7440466276961574
2014-04-01 09:55:00,0.7694202339992671,0,0.7694202339992671
2014-04-01 10:00:00,0.8721645544708202,0,0.8721645544708202
2014-04-01 10:05:00,0.8709533700277329,0,0.8709533700277329
2014-04-01 10:10:00,0.9267617613737238,0,0.9267617613737238
2014-04-01 10:15:00,0.9299571287186166,0,0.9299571287186166
2014-04-01 10:20:00,0.8241179488774136,0,0.8241179488774136
2014-04-01 10:25:00,0.8420044994421375,0,0.8420044994421375
2014-04-01 10:30:00,0.8515852974673069,0,0.8515852974673069
2014-04-01 10:35:00,0.8707312558805859,0,0.8707312558805859
2014-04-01 10:40:00,0.8624160497727711,0,0.8624160497727711
2014-04-01 10:45:00,0.9145408506309148,0,0.9145408506309148
2014-04-01 10:50:00,0.9366053649065416,0,0.9366053649065416
2014-04-01 10:55:00,0.8486808000375686,0,0.8486808000375686
2014-04-01 11:00:00,0.9294202797388356,0,0.9294202797388356
2014-04-01 11:05:00,0.9013057359439434,0,0.9013057359439434
2014-04-01 11:10:00,0.9211799540610426,0,0.9211799540610426
2014-04-01 11:15:00,0.9377435234968146,0,0.9377435234968146
2014-04-01 11:20:00,0.9770480837403626,0,0.9770480837403626
2014-04-01 11:25:00,0.8760204872060454,0,0.8760204872060454
2014-04-01 11:30:00,0.8608533815009276,0,0.8608533815009276
2014-04-01 11:35:00,0.9386732729130016,0,0.9386732729130016
2014-04-01 11:40:00,0.9050965151420934,0,0.9050965151420934
2014-04-01 11:45:00,0.8717866811117427,0,0.8717866811117427
2014-04-01 11:50:00,0.8651866735913357,0,0.8651866735913357
2014-04-01 11:55:00,0.9288339318438392,0,0.9288339318438392
2014-04-01 12:00:00,0.8971923607126601,0,0.8971923607126601
2014-04-01 12:05:00,0.99840443555243,0,0.99840443555243
2014-04-01 12:10:00,0.9125029615171896,0,0.9125029615171896
2014-04-01 12:15:00,0.8843862625961588,0,0.8843862625961588
2014-04-01 12:20:00,0.94487955268281,0,0.94487955268281
2014-04-01 12:25:00,0.8890287034952562,0,0.8890287034952562
2014-04-01 12:30:00,0.9253092394364808,0,0.9253092394364808
2014-04-01 12:35:00,0.9236377750670844,0,0.9236377750670844
2014-04-01 12:40:00,0.9194236941698888,0,0.9194236941698888
2014-04-01 12:45:00,0.9691656965319212,0,0.9691656965319212
2014-04-01 12:50:00,0.885014542310473,0,0.885014542310473
2014-04-01 12:55:00,0.984881662744552,0,0.984881662744552
2014-04-01 13:00:00,0.9697085178152572,0,0.9697085178152572
2014-04-01 13:05:00,0.903059295858468,0,0.903059295858468
2014-04-01 13:10:00,0.8808748186366973,0,0.8808748186366973
2014-04-01 13:15:00,0.8952648543110978,0,0.8952648543110978
2014-04-01 13:20:00,0.9029885886136768,0,0.9029885886136768
2014-04-01 13:25:00,0.9356132580891968,0,0.9356132580891968
2014-04-01 13:30:00,0.8613500259862849,0,0.8613500259862849
2014-04-01 13:35:00,0.9876019512137916,0,0.9876019512137916
2014-04-01 13:40:00,0.8689581928218437,0,0.8689581928218437
2014-04-01 13:45:00,0.8952267993724603,0,0.8952267993724603
2014-04-01 13:50:00,0.8705018250478448,0,0.8705018250478448
2014-04-01 13:55:00,0.8919394780800665,0,0.8919394780800665
2014-04-01 14:00:00,0.976696380761666,0,0.976696380761666
2014-04-01 14:05:00,0.9443230085876434,0,0.9443230085876434
2014-04-01 14:10:00,0.8878906104678036,0,0.8878906104678036
2014-04-01 14:15:00,0.9816556927776484,0,0.9816556927776484
2014-04-01 14:20:00,0.9713184593687032,0,0.9713184593687032
2014-04-01 14:25:00,0.9644708439180502,0,0.9644708439180502
2014-04-01 14:30:00,0.978145393835268,0,0.978145393835268
2014-04-01 14:35:00,0.9449739549252326,0,0.9449739549252326
2014-04-01 14:40:00,0.9277741088644932,0,0.9277741088644932
2014-04-01 14:45:00,0.9092225696194765,0,0.9092225696194765
2014-04-01 14:50:00,0.8873727475925864,0,0.8873727475925864
2014-04-01 14:55:00,0.9359183470331756,0,0.9359183470331756
2014-04-01 15:00:00,0.984286146820742,0,0.984286146820742
2014-04-01 15:05:00,0.9412867255248866,0,0.9412867255248866
2014-04-01 15:10:00,0.9886680774538362,0,0.9886680774538362
2014-04-01 15:15:00,0.9067917384185702,0,0.9067917384185702
2014-04-01 15:20:00,0.9560058523160476,0,0.9560058523160476
2014-04-01 15:25:00,0.9492436891257864,0,0.9492436891257864
2014-04-01 15:30:00,0.9524111813187376,0,0.9524111813187376
2014-04-01 15:35:00,0.9487164433507552,0,0.9487164433507552
2014-04-01 15:40:00,0.887109810106238,0,0.887109810106238
2014-04-01 15:45:00,0.8757508344493617,0,0.8757508344493617
2014-04-01 15:50:00,0.9972562166938516,0,0.9972562166938516
2014-04-01 15:55:00,0.8614479234170201,0,0.8614479234170201
2014-04-01 16:00:00,0.9229261608912444,0,0.9229261608912444
2014-04-01 16:05:00,0.9167192283270656,0,0.9167192283270656
2014-04-01 16:10:00,0.9072520992218484,0,0.9072520992218484
2014-04-01 16:15:00,0.9686525404071188,0,0.9686525404071188
2014-04-01 16:20:00,0.9633219617400908,0,0.9633219617400908
2014-04-01 16:25:00,0.9865854446614766,0,0.9865854446614766
2014-04-01 16:30:00,0.9124131582231748,0,0.9124131582231748
2014-04-01 16:35:00,0.93695966302829,0,0.93695966302829
2014-04-01 16:40:00,0.9847057544176016,0,0.9847057544176016
2014-04-01 16:45:00,0.9994810668177228,0,0.9994810668177228
2014-04-01 16:50:00,0.9959082386999774,0,0.9959082386999774
2014-04-01 16:55:00,0.959319481532418,0,0.959319481532418
2014-04-01 17:00:00,0.8757083430283507,0,0.8757083430283507
2014-04-01 17:05:00,0.8582409592823677,0,0.8582409592823677
2014-04-01 17:10:00,0.9749456103395604,0,0.9749456103395604
2014-04-01 17:15:00,0.9772335794095184,0,0.9772335794095184
2014-04-01 17:20:00,0.9634709721531668,0,0.9634709721531668
2014-04-01 17:25:00,0.8955991251243809,0,0.8955991251243809
2014-04-01 17:30:00,0.947967770317142,0,0.947967770317142
2014-04-01 17:35:00,0.9008848113211588,0,0.9008848113211588
2014-04-01 17:40:00,0.9204414817804766,0,0.9204414817804766
2014-04-01 17:45:00,0.9105157060690328,0,0.9105157060690328
2014-04-01 17:50:00,0.9878119582623296,0,0.9878119582623296
2014-04-01 17:55:00,0.8889396391128052,0,0.8889396391128052
2014-04-01 18:00:00,0.2000668537449745,0,0.2000668537449745
2014-04-01 18:05:00,0.20006685777979186,0,0.20006685777979186
2014-04-01 18:10:00,0.20006685215296444,0,0.20006685215296444
2014-04-01 18:15:00,0.20006685398799484,0,0.20006685398799484
2014-04-01 18:20:00,0.20006684729374105,0,0.20006684729374105
2014-04-01 18:25:00,0.20006686261066045,0,0.20006686261066045
2014-04-01 18:30:00,0.20006686039369884,0,0.20006686039369884
2014-04-01 18:35:00,0.20006685022966386,0,0.20006685022966386
2014-04-01 18:40:00,0.20006685763441445,0,0.20006685763441445
2014-04-01 18:45:00,0.2000668614154356,0,0.2000668614154356
2014-04-01 18:50:00,0.2000668551286518,0,0.2000668551286518
2014-04-01 18:55:00,0.2000668523567989,0,0.2000668523567989
2014-04-01 19:00:00,0.06780225183550333,0,0.06780225183550333
2014-04-01 19:05:00,0.06061995622933415,0,0.06061995622933415
2014-04-01 19:10:00,0.0455507908025567,0,0.0455507908025567
2014-04-01 19:15:00,0.053966521254720165,0,0.053966521254720165
2014-04-01 19:20:00,0.06807719534107375,0,0.06807719534107375
2014-04-01 19:25:00,0.06090140074356778,0,0.06090140074356778
2014-04-01 19:30:00,0.05050637719134202,0,0.05050637719134202
2014-04-01 19:35:00,0.06330500050427272,0,0.06330500050427272
2014-04-01 19:40:00,0.04502785624654308,0,0.04502785624654308
2014-04-01 19:45:00,0.049416927045539176,0,0.049416927045539176
2014-04-01 19:50:00,0.05538861755891845,0,0.05538861755891845
2014-04-01 19:55:00,0.042460095358165896,0,0.042460095358165896
2014-04-01 20:00:00,0.029232058656502927,0,0.029232058656502927
2014-04-01 20:05:00,0.03470540120801415,0,0.03470540120801415
2014-04-01 20:10:00,0.019816821214323103,0,0.019816821214323103
2014-04-01 20:15:00,0.022893783637450718,0,0.022893783637450718
2014-04-01 20:20:00,0.031207037556386017,0,0.031207037556386017
2014-04-01 20:25:00,0.030913105052396705,0,0.030913105052396705
2014-04-01 20:30:00,0.02900822029567379,0,0.02900822029567379
2014-04-01 20:35:00,0.03274745456589684,0,0.03274745456589684
2014-04-01 20:40:00,0.018111251950933896,0,0.018111251950933896
2014-04-01 20:45:00,0.02016760532678886,0,0.02016760532678886
2014-04-01 20:50:00,0.027521653724282447,0,0.027521653724282447
2014-04-01 20:55:00,0.029020639955167293,0,0.029020639955167293
2014-04-01 21:00:00,0.024502868994540586,0,0.024502868994540586
2014-04-01 21:05:00,0.027446935634791676,0,0.027446935634791676
2014-04-01 21:10:00,0.0345838797645803,0,0.0345838797645803
2014-04-01 21:15:00,0.02799775124413736,0,0.02799775124413736
2014-04-01 21:20:00,0.02608527183532507,0,0.02608527183532507
2014-04-01 21:25:00,0.017912239926760273,0,0.017912239926760273
2014-04-01 21:30:00,0.009752854410247863,0,0.009752854410247863
2014-04-01 21:35:00,0.02339677731413177,0,0.02339677731413177
2014-04-01 21:40:00,0.003583153925886243,0,0.003583153925886243
2014-04-01 21:45:00,0.007819993500408616,0,0.007819993500408616
2014-04-01 21:50:00,0.00213806054601131,0,0.00213806054601131
2014-04-01 21:55:00,0.006057042790265892,0,0.006057042790265892
2014-04-01 22:00:00,0.014229472627861712,0,0.014229472627861712
2014-04-01 22:05:00,0.014892184202666857,0,0.014892184202666857
2014-04-01 22:10:00,0.031924378721099815,0,0.031924378721099815
2014-04-01 22:15:00,0.010391459914513757,0,0.010391459914513757
2014-04-01 22:20:00,0.014829439546973269,0,0.014829439546973269
2014-04-01 22:25:00,0.018217141964272158,0,0.018217141964272158
2014-04-01 22:30:00,0.011448809982073573,0,0.011448809982073573
2014-04-01 22:35:00,0.020501073594621624,0,0.020501073594621624
2014-04-01 22:40:00,0.017602339672532625,0,0.017602339672532625
2014-04-01 22:45:00,0.02216071757894917,0,0.02216071757894917
2014-04-01 22:50:00,0.010574087810747123,0,0.010574087810747123
2014-04-01 22:55:00,0.004790550786725643,0,0.004790550786725643
2014-04-01 23:00:00,0.0058408701592225255,0,0.0058408701592225255
2014-04-01 23:05:00,0.007834451524179166,0,0.007834451524179166
2014-04-01 23:10:00,0.03591777464077147,0,0.03591777464077147
2014-04-01 23:15:00,0.0032575801478878807,0,0.0032575801478878807
2014-04-01 23:20:00,0.026423003305283063,0,0.026423003305283063
2014-04-01 23:25:00,0.004126968766375635,0,0.004126968766375635
2014-04-01 23:30:00,0.029256205018196688,0,0.029256205018196688
2014-04-01 23:35:00,0.020430948260216426,0,0.020430948260216426
2014-04-01 23:40:00,0.009166416260991891,0,0.009166416260991891
2014-04-01 23:45:00,0.013134687306769777,0,0.013134687306769777
2014-04-01 23:50:00,0.021293692505085917,0,0.021293692505085917
2014-04-01 23:55:00,0.011740229715108456,0,0.011740229715108456
2014-04-02 00:00:00,0.01639721484338568,0,0.01639721484338568
2014-04-02 00:05:00,0.02633611325281716,0,0.02633611325281716
2014-04-02 00:10:00,0.01285474590915559,0,0.01285474590915559
2014-04-02 00:15:00,0.028936734631197024,0,0.028936734631197024
2014-04-02 00:20:00,0.011121021657509896,0,0.011121021657509896
2014-04-02 00:25:00,0.03625362971502027,0,0.03625362971502027
2014-04-02 00:30:00,0.016403653581420624,0,0.016403653581420624
2014-04-02 00:35:00,0.02177683408703053,0,0.02177683408703053
2014-04-02 00:40:00,0.02534054469110069,0,0.02534054469110069
2014-04-02 00:45:00,0.01760646942174697,0,0.01760646942174697
2014-04-02 00:50:00,0.012891771717687224,0,0.012891771717687224
2014-04-02 00:55:00,0.0012508489898401304,0,0.0012508489898401304
2014-04-02 01:00:00,0.006061733666312967,0,0.006061733666312967
2014-04-02 01:05:00,0.010278453381760849,0,0.010278453381760849
2014-04-02 01:10:00,0.018943028614308008,0,0.018943028614308008
2014-04-02 01:15:00,0.022101451774292975,0,0.022101451774292975
2014-04-02 01:20:00,0.03518343899301133,0,0.03518343899301133
2014-04-02 01:25:00,0.02330363719078406,0,0.02330363719078406
2014-04-02 01:30:00,0.005504693015838672,0,0.005504693015838672
2014-04-02 01:35:00,0.022396822786089638,0,0.022396822786089638
2014-04-02 01:40:00,0.019575344555030547,0,0.019575344555030547
2014-04-02 01:45:00,0.02647805520247691,0,0.02647805520247691
2014-04-02 01:50:00,0.026394446812392898,0,0.026394446812392898
2014-04-02 01:55:00,0.03411603738054508,0,0.03411603738054508
2014-04-02 02:00:00,0.014037953139622824,0,0.014037953139622824
2014-04-02 02:05:00,0.02006701235842713,0,0.02006701235842713
2014-04-02 02:10:00,0.01432326861222934,0,0.01432326861222934
2014-04-02 02:15:00,0.016472248082042378,0,0.016472248082042378
2014-04-02 02:20:00,0.007306578832133799,0,0.007306578832133799
2014-04-02 02:25:00,0.009046626866111268,0,0.009046626866111268
2014-04-02 02:30:00,0.008302993795480674,0,0.008302993795480674
2014-04-02 02:35:00,0.018205574153986336,0,0.018205574153986336
2014-04-02 02:40:00,0.02349336754731739,0,0.02349336754731739
2014-04-02 02:45:00,0.0024104163114144904,0,0.0024104163114144904
2014-04-02 02:50:00,0.034392581036909266,0,0.034392581036909266
2014-04-02 02:55:00,0.030814767469240868,0,0.030814767469240868
2014-04-02 03:00:00,0.021102699960359714,0,0.021102699960359714
2014-04-02 03:05:00,0.01403236088961552,0,0.01403236088961552
2014-04-02 03:10:00,0.036068484946234214,0,0.036068484946234214
2014-04-02 03:15:00,0.010199406717398664,0,0.010199406717398664
2014-04-02 03:20:00,0.016041547789122663,0,0.016041547789122663
2014-04-02 03:25:00,0.018734371053434718,0,0.018734371053434718
2014-04-02 03:30:00,0.02096097394757005,0,0.02096097394757005
2014-04-02 03:35:00,0.017468995324866562,0,0.017468995324866562
2014-04-02 03:40:00,0.030481385685107724,0,0.030481385685107724
2014-04-02 03:45:00,0.03241210147725376,0,0.03241210147725376
2014-04-02 03:50:00,0.025830419033832184,0,0.025830419033832184
2014-04-02 03:55:00,0.010556565064582956,0,0.010556565064582956
2014-04-02 04:00:00,0.014966170898068818,0,0.014966170898068818
2014-04-02 04:05:00,0.01890097201000213,0,0.01890097201000213
2014-04-02 04:10:00,0.01557611467753042,0,0.01557611467753042
2014-04-02 04:15:00,0.01602221406455822,0,0.01602221406455822
2014-04-02 04:20:00,0.025197283350958426,0,0.025197283350958426
2014-04-02 04:25:00,0.032821562557654546,0,0.032821562557654546
2014-04-02 04:30:00,0.0037438166840063672,0,0.0037438166840063672
2014-04-02 04:35:00,0.014543337815262672,0,0.014543337815262672
2014-04-02 04:40:00,0.010984251438541714,0,0.010984251438541714
2014-04-02 04:45:00,0.01948759307689811,0,0.01948759307689811
2014-04-02 04:50:00,0.00884768870435552,0,0.00884768870435552
2014-04-02 04:55:00,0.015104065352383754,0,0.015104065352383754
2014-04-02 05:00:00,0.03440962955737573,0,0.03440962955737573
2014-04-02 05:05:00,0.003987014477599319,0,0.003987014477599319
2014-04-02 05:10:00,0.025252060284645297,0,0.025252060284645297
2014-04-02 05:15:00,0.03135063192811687,0,0.03135063192811687
2014-04-02 05:20:00,0.033164057453747946,0,0.033164057453747946
2014-04-02 05:25:00,0.010158754711323156,0,0.010158754711323156
2014-04-02 05:30:00,0.010757968095900409,0,0.010757968095900409
2014-04-02 05:35:00,0.010896430848933587,0,0.010896430848933587
2014-04-02 05:40:00,0.0030537149034983845,0,0.0030537149034983845
2014-04-02 05:45:00,0.02367301316146296,0,0.02367301316146296
2014-04-02 05:50:00,0.01595400409286444,0,0.01595400409286444
2014-04-02 05:55:00,0.013830903100597355,0,0.013830903100597355
2014-04-02 06:00:00,0.0007353913218456303,0,0.0007353913218456303
2014-04-02 06:05:00,0.025004327500293626,0,0.025004327500293626
2014-04-02 06:10:00,0.0015775605275460175,0,0.0015775605275460175
2014-04-02 06:15:00,0.030956167104853136,0,0.030956167104853136
2014-04-02 06:20:00,0.008574095693205908,0,0.008574095693205908
2014-04-02 06:25:00,0.013343792672136336,0,0.013343792672136336
2014-04-02 06:30:00,0.006649906587910788,0,0.006649906587910788
2014-04-02 06:35:00,0.0353232782442344,0,0.0353232782442344
2014-04-02 06:40:00,0.033524560283247316,0,0.033524560283247316
2014-04-02 06:45:00,0.033831416704130146,0,0.033831416704130146
2014-04-02 06:50:00,0.014796229344336597,0,0.014796229344336597
2014-04-02 06:55:00,0.014433302031012415,0,0.014433302031012415
2014-04-02 07:00:00,0.003404683784325417,0,0.003404683784325417
2014-04-02 07:05:00,0.019356404133660896,0,0.019356404133660896
2014-04-02 07:10:00,0.033891320940287316,0,0.033891320940287316
2014-04-02 07:15:00,0.02874457556191824,0,0.02874457556191824
2014-04-02 07:20:00,0.036073115113170615,0,0.036073115113170615
2014-04-02 07:25:00,0.008111622062089246,0,0.008111622062089246
2014-04-02 07:30:00,0.006697074072833474,0,0.006697074072833474
2014-04-02 07:35:00,6.390829821402509e-05,0,6.390829821402509e-05
2014-04-02 07:40:00,0.021372064672075333,0,0.021372064672075333
2014-04-02 07:45:00,0.03566476397254603,0,0.03566476397254603
2014-04-02 07:50:00,0.027827837255691774,0,0.027827837255691774
2014-04-02 07:55:00,0.01498505156973124,0,0.01498505156973124
2014-04-02 08:00:00,0.001373416720065095,0,0.001373416720065095
2014-04-02 08:05:00,0.03259883561535972,0,0.03259883561535972
2014-04-02 08:10:00,0.031944236226126264,0,0.031944236226126264
2014-04-02 08:15:00,0.010838340560515485,0,0.010838340560515485
2014-04-02 08:20:00,0.01209526416559588,0,0.01209526416559588
2014-04-02 08:25:00,0.02725392366589596,0,0.02725392366589596
2014-04-02 08:30:00,0.006786368716827405,0,0.006786368716827405
2014-04-02 08:35:00,0.03168210734486195,0,0.03168210734486195
2014-04-02 08:40:00,0.0026903343217336787,0,0.0026903343217336787
2014-04-02 08:45:00,0.02905369497096958,0,0.02905369497096958
2014-04-02 08:50:00,0.03340737535596106,0,0.03340737535596106
2014-04-02 08:55:00,0.024015726178004574,0,0.024015726178004574
2014-04-02 09:00:00,0.7116671683165339,0,0.7116671683165339
2014-04-02 09:05:00,0.7486743090103403,0,0.7486743090103403
2014-04-02 09:10:00,0.7661253249338279,0,0.7661253249338279
2014-04-02 09:15:00,0.7447433612735648,0,0.7447433612735648
2014-04-02 09:20:00,0.7632617503129598,0,0.7632617503129598
2014-04-02 09:25:00,0.7309924324060424,0,0.7309924324060424
2014-04-02 09:30:00,0.6942146923022835,0,0.6942146923022835
2014-04-02 09:35:00,0.7974703666227209,0,0.7974703666227209
2014-04-02 09:40:00,0.7805928133560441,0,0.7805928133560441
2014-04-02 09:45:00,0.6991798517922703,0,0.6991798517922703
2014-04-02 09:50:00,0.7401875661553858,0,0.7401875661553858
2014-04-02 09:55:00,0.7604692154282611,0,0.7604692154282611
2014-04-02 10:00:00,0.8484744540037777,0,0.8484744540037777
2014-04-02 10:05:00,0.9020261755423687,0,0.9020261755423687
2014-04-02 10:10:00,0.8958968062636237,0,0.8958968062636237
2014-04-02 10:15:00,0.8509172054286563,0,0.8509172054286563
2014-04-02 10:20:00,0.8416478283530021,0,0.8416478283530021
2014-04-02 10:25:00,0.9270431956776152,0,0.9270431956776152
2014-04-02 10:30:00,0.8667204826305043,0,0.8667204826305043
2014-04-02 10:35:00,0.8558626347450512,0,0.8558626347450512
2014-04-02 10:40:00,0.9241286432589012,0,0.9241286432589012
2014-04-02 10:45:00,0.923878483562506,0,0.923878483562506
2014-04-02 10:50:00,0.860336096636395,0,0.860336096636395
2014-04-02 10:55:00,0.9427476224792084,0,0.9427476224792084
2014-04-02 11:00:00,0.9474662066294942,0,0.9474662066294942
2014-04-02 11:05:00,0.8981290052974636,0,0.8981290052974636
2014-04-02 11:10:00,0.909902055090464,0,0.909902055090464
2014-04-02 11:15:00,0.953006536499912,0,0.953006536499912
2014-04-02 11:20:00,0.8787994978562923,0,0.8787994978562923
2014-04-02 11:25:00,0.9158474162733434,0,0.9158474162733434
2014-04-02 11:30:00,0.9424686367721742,0,0.9424686367721742
2014-04-02 11:35:00,0.9260376238270688,0,0.9260376238270688
2014-04-02 11:40:00,0.9359529783795808,0,0.9359529783795808
2014-04-02 11:45:00,0.9270048097154444,0,0.9270048097154444
2014-04-02 11:50:00,0.8770194842173414,0,0.8770194842173414
2014-04-02 11:55:00,0.9074121449122468,0,0.9074121449122468
2014-04-02 12:00:00,0.9308130063605458,0,0.9308130063605458
2014-04-02 12:05:00,0.9668388395833049,0,0.9668388395833049
2014-04-02 12:10:00,0.94851807327127,0,0.94851807327127
2014-04-02 12:15:00,0.9155075862165508,0,0.9155075862165508
2014-04-02 12:20:00,0.9950605151899647,0,0.9950605151899647
2014-04-02 12:25:00,0.8692120435810587,0,0.8692120435810587
2014-04-02 12:30:00,0.8835902030577332,0,0.8835902030577332
2014-04-02 12:35:00,0.9031234473305289,0,0.9031234473305289
2014-04-02 12:40:00,0.8867512419296941,0,0.8867512419296941
2014-04-02 12:45:00,0.94438478036606,0,0.94438478036606
2014-04-02 12:50:00,0.8593015195872048,0,0.8593015195872048
2014-04-02 12:55:00,0.8793253632961838,0,0.8793253632961838
2014-04-02 13:00:00,0.8972738827224842,0,0.8972738827224842
2014-04-02 13:05:00,0.9540003561483216,0,0.9540003561483216
2014-04-02 13:10:00,0.982002845869782,0,0.982002845869782
2014-04-02 13:15:00,0.9707486913997608,0,0.9707486913997608
2014-04-02 13:20:00,0.8810898603361482,0,0.8810898603361482
2014-04-02 13:25:00,0.9368456220206214,0,0.9368456220206214
2014-04-02 13:30:00,0.858972519884247,0,0.858972519884247
2014-04-02 13:35:00,0.8997741532613966,0,0.8997741532613966
2014-04-02 13:40:00,0.9718384291176202,0,0.9718384291176202
2014-04-02 13:45:00,0.9210290517925968,0,0.9210290517925968
2014-04-02 13:50:00,0.876415056169889,0,0.876415056169889
2014-04-02 13:55:00,0.9183945579789868,0,0.9183945579789868
2014-04-02 14:00:00,0.8836288834409929,0,0.8836288834409929
2014-04-02 14:05:00,0.9120243728257058,0,0.9120243728257058
2014-04-02 14:10:00,0.9257947486109908,0,0.9257947486109908
2014-04-02 14:15:00,0.9056757383099312,0,0.9056757383099312
2014-04-02 14:20:00,0.9911437832243808,0,0.9911437832243808
2014-04-02 14:25:00,0.9366631071184178,0,0.9366631071184178
2014-04-02 14:30:00,0.977455722151444,0,0.977455722151444
2014-04-02 14:35:00,0.9655008741400511,0,0.9655008741400511
2014-04-02 14:40:00,0.9510146078653284,0,0.9510146078653284
2014-04-02 14:45:00,0.9271122876275296,0,0.9271122876275296
2014-04-02 14:50:00,0.8551314556827533,0,0.8551314556827533
2014-04-02 14:55:00,0.9440744645862806,0,0.9440744645862806
2014-04-02 15:00:00,0.9066520619944312,0,0.9066520619944312
2014-04-02 15:05:00,0.8719925236838982,0,0.8719925236838982
2014-04-02 15:10:00,0.9195541646659005,0,0.9195541646659005
2014-04-02 15:15:00,0.9618866461202564,0,0.9618866461202564
2014-04-02 15:20:00,0.9947897733807346,0,0.9947897733807346
2014-04-02 15:25:00,0.9092926760756164,0,0.9092926760756164
2014-04-02 15:30:00,0.9338281580773606,0,0.9338281580773606
2014-04-02 15:35:00,0.9787207272128492,0,0.9787207272128492
2014-04-02 15:40:00,0.9034569723686648,0,0.9034569723686648
2014-04-02 15:45:00,0.8755567759990538,0,0.8755567759990538
2014-04-02 15:50:00,0.8958733984388019,0,0.8958733984388019
2014-04-02 15:55:00,0.985687468138768,0,0.985687468138768
2014-04-02 16:00:00,0.8780588752751045,0,0.8780588752751045
2014-04-02 16:05:00,0.9027706731671576,0,0.9027706731671576
2014-04-02 16:10:00,0.9224756338289112,0,0.9224756338289112
2014-04-02 16:15:00,0.978129565844034,0,0.978129565844034