timestamp,value,is_anomaly,anomaly_score,S(t)_reward_low_FP_rate,S(t)_reward_low_FN_rate,S(t)_standard,predicted_anomaly
2014-04-01 00:00:00,0.00126358421052,0,0.5,0.0,0.0,0.0,0
2014-04-01 00:05:00,0.0336846550307,0,0.5,0.0,0.0,0.0,0
2014-04-01 00:10:00,0.0443370297295,0,0.5,0.0,0.0,0.0,0
2014-04-01 00:15:00,0.044995855659,0,0.5,0.0,0.0,0.0,0
2014-04-01 00:20:00,0.00193010924089,0,0.5,0.0,0.0,0.0,0
2014-04-01 00:25:00,0.0517687135775,0,0.5,0.0,0.0,0.0,0
2014-04-01 00:30:00,0.0524565517674,0,0.5,0.0,0.0,0.0,0
2014-04-01 00:35:00,0.0320519826621,0,0.5,0.0,0.0,0.0,0
2014-04-01 00:40:00,0.0275199072913,0,0.5,0.0,0.0,0.0,0
2014-04-01 00:45:00,0.0025348452708,0,0.5,0.0,0.0,0.0,0
2014-04-01 00:50:00,0.0320841997372,0,0.5,0.0,0.0,0.0,0
2014-04-01 00:55:00,0.0233651691926,0,0.5,0.0,0.0,0.0,0
2014-04-01 01:00:00,0.044133530272,0,0.5,0.0,0.0,0.0,0
2014-04-01 01:05:00,0.0230511233581,0,0.5,0.0,0.0,0.0,0
2014-04-01 01:10:00,0.0390346595784,0,0.5,0.0,0.0,0.0,0
2014-04-01 01:15:00,0.00576591030378,0,0.5,0.0,0.0,0.0,0
2014-04-01 01:20:00,0.00756852590772,0,0.5,0.0,0.0,0.0,0
2014-04-01 01:25:00,0.00795471293939,0,0.5,0.0,0.0,0.0,0
2014-04-01 01:30:00,0.00257244933452,0,0.5,0.0,0.0,0.0,0
2014-04-01 01:35:00,0.0309055505295,0,0.5,0.0,0.0,0.0,0
2014-04-01 01:40:00,0.0453428116762,0,0.5,0.0,0.0,0.0,0
2014-04-01 01:45:00,0.0348533193737,0,0.5,0.0,0.0,0.0,0
2014-04-01 01:50:00,0.0328271381651,0,0.5,0.0,0.0,0.0,0
2014-04-01 01:55:00,0.0388656847522,0,0.5,0.0,0.0,0.0,0
2014-04-01 02:00:00,0.0193801747302,0,0.5,0.0,0.0,0.0,0
2014-04-01 02:05:00,0.0206550269853,0,0.5,0.0,0.0,0.0,0
2014-04-01 02:10:00,0.0179300861017,0,0.5,0.0,0.0,0.0,0
2014-04-01 02:15:00,0.0406649218896,0,0.5,0.0,0.0,0.0,0
2014-04-01 02:20:00,0.00920792957526,0,0.5,0.0,0.0,0.0,0
2014-04-01 02:25:00,0.000715196878181,0,0.5,0.0,0.0,0.0,0
2014-04-01 02:30:00,0.034041005096,0,0.5,0.0,0.0,0.0,0
2014-04-01 02:35:00,0.0538240342475,0,0.5,0.0,0.0,0.0,0
2014-04-01 02:40:00,0.034795985709,0,0.5,0.0,0.0,0.0,0
2014-04-01 02:45:00,0.0447115745114,0,0.5,0.0,0.0,0.0,0
2014-04-01 02:50:00,0.0384180488493,0,0.5,0.0,0.0,0.0,0
2014-04-01 02:55:00,0.0283972934082,0,0.5,0.0,0.0,0.0,0
2014-04-01 03:00:00,0.0410239960215,0,0.5,0.0,0.0,0.0,0
2014-04-01 03:05:00,0.047064981549,0,0.5,0.0,0.0,0.0,0
2014-04-01 03:10:00,0.012813335618,0,0.5,0.0,0.0,0.0,0
2014-04-01 03:15:00,0.019179316085,0,0.5,0.0,0.0,0.0,0
2014-04-01 03:20:00,0.0127558519468,0,0.5,0.0,0.0,0.0,0
2014-04-01 03:25:00,0.0258106612096,0,0.5,0.0,0.0,0.0,0
2014-04-01 03:30:00,0.0505486165753,0,0.5,0.0,0.0,0.0,0
2014-04-01 03:35:00,0.0196980072112,0,0.5,0.0,0.0,0.0,0
2014-04-01 03:40:00,0.0213700824947,0,0.5,0.0,0.0,0.0,0
2014-04-01 03:45:00,0.0491372676056,0,0.5,0.0,0.0,0.0,0
2014-04-01 03:50:00,0.0294223571039,0,0.5,0.0,0.0,0.0,0
2014-04-01 03:55:00,0.0305695409915,0,0.5,0.0,0.0,0.0,0
2014-04-01 04:00:00,0.0491620671101,0,0.5,0.0,0.0,0.0,0
2014-04-01 04:05:00,0.0280024204012,0,0.5,0.0,0.0,0.0,0
2014-04-01 04:10:00,0.0389190364675,0,0.5,0.0,0.0,0.0,0
2014-04-01 04:15:00,0.00486509292101,0,0.5,0.0,0.0,0.0,0
2014-04-01 04:20:00,0.0101789161721,0,0.5,0.0,0.0,0.0,0
2014-04-01 04:25:00,0.023079275335,0,0.5,0.0,0.0,0.0,0
2014-04-01 04:30:00,0.0282488521823,0,0.5,0.0,0.0,0.0,0
2014-04-01 04:35:00,0.0551585232148,0,0.5,0.0,0.0,0.0,0
2014-04-01 04:40:00,0.0554395625773,0,0.5,0.0,0.0,0.0,0
2014-04-01 04:45:00,0.0486132318087,0,0.5,0.0,0.0,0.0,0
2014-04-01 04:50:00,0.0180060179013,0,0.5,0.0,0.0,0.0,0
2014-04-01 04:55:00,0.055061066099,0,0.5,0.0,0.0,0.0,0
2014-04-01 05:00:00,0.0393638214285,0,0.5,0.0,0.0,0.0,0
2014-04-01 05:05:00,0.0224257513026,0,0.5,0.0,0.0,0.0,0
2014-04-01 05:10:00,0.0400686612512,0,0.5,0.0,0.0,0.0,0
2014-04-01 05:15:00,0.000915061577154,0,0.5,0.0,0.0,0.0,0
2014-04-01 05:20:00,0.00832298884933,0,0.5,0.0,0.0,0.0,0
2014-04-01 05:25:00,0.0473839460863,0,0.5,0.0,0.0,0.0,0
2014-04-01 05:30:00,0.0368627062776,0,0.5,0.0,0.0,0.0,0
2014-04-01 05:35:00,0.0207830696566,0,0.5,0.0,0.0,0.0,0
2014-04-01 05:40:00,0.0285818737227,0,0.5,0.0,0.0,0.0,0
2014-04-01 05:45:00,0.0516959678902,0,0.5,0.0,0.0,0.0,0
2014-04-01 05:50:00,0.0360629200589,0,0.5,0.0,0.0,0.0,0
2014-04-01 05:55:00,0.022723432922,0,0.5,0.0,0.0,0.0,0
2014-04-01 06:00:00,0.00684702458151,0,0.5,0.0,0.0,0.0,0
2014-04-01 06:05:00,0.0167572650058,0,0.5,0.0,0.0,0.0,0
2014-04-01 06:10:00,0.0558789340955,0,0.5,0.0,0.0,0.0,0
2014-04-01 06:15:00,0.0249643373961,0,0.5,0.0,0.0,0.0,0
2014-04-01 06:20:00,0.0269345204126,0,0.5,0.0,0.0,0.0,0
2014-04-01 06:25:00,0.0284636613836,0,0.5,0.0,0.0,0.0,0
2014-04-01 06:30:00,0.0504937263939,0,0.5,0.0,0.0,0.0,0
2014-04-01 06:35:00,0.0344828474805,0,0.5,0.0,0.0,0.0,0
2014-04-01 06:40:00,0.0396116156222,0,0.5,0.0,0.0,0.0,0
2014-04-01 06:45:00,0.0222242216124,0,0.5,0.0,0.0,0.0,0
2014-04-01 06:50:00,0.00163309274774,0,0.5,0.0,0.0,0.0,0
2014-04-01 06:55:00,0.0531720887219,0,0.5,0.0,0.0,0.0,0
2014-04-01 07:00:00,0.0542095581773,0,0.5,0.0,0.0,0.0,0
2014-04-01 07:05:00,0.054211008106,0,0.5,0.0,0.0,0.0,0
2014-04-01 07:10:00,0.0538986508283,0,0.5,0.0,0.0,0.0,0
2014-04-01 07:15:00,0.0465585446389,0,0.5,0.0,0.0,0.0,0
2014-04-01 07:20:00,0.0390926749988,0,0.5,0.0,0.0,0.0,0
2014-04-01 07:25:00,0.048231087884,0,0.5,0.0,0.0,0.0,0
2014-04-01 07:30:00,0.0342895776447,0,0.5,0.0,0.0,0.0,0
2014-04-01 07:35:00,0.00764952117615,0,0.5,0.0,0.0,0.0,0
2014-04-01 07:40:00,0.0223273482873,0,0.5,0.0,0.0,0.0,0
2014-04-01 07:45:00,0.0554763232941,0,0.5,0.0,0.0,0.0,0
2014-04-01 07:50:00,0.0200369227953,0,0.5,0.0,0.0,0.0,0
2014-04-01 07:55:00,0.0495636144031,0,0.5,0.0,0.0,0.0,0
2014-04-01 08:00:00,0.00529750436974,0,0.5,0.0,0.0,0.0,0
2014-04-01 08:05:00,0.0190680738088,0,0.5,0.0,0.0,0.0,0
2014-04-01 08:10:00,0.020026380023,0,0.5,0.0,0.0,0.0,0
2014-04-01 08:15:00,0.00291972709998,0,0.5,0.0,0.0,0.0,0
2014-04-01 08:20:00,0.00677660220275,0,0.5,0.0,0.0,0.0,0
2014-04-01 08:25:00,0.0110094451746,0,0.5,0.0,0.0,0.0,0
2014-04-01 08:30:00,0.0478485348937,0,0.5,0.0,0.0,0.0,0
2014-04-01 08:35:00,0.00359401644324,0,0.5,0.0,0.0,0.0,0
2014-04-01 08:40:00,0.0170403712135,0,0.5,0.0,0.0,0.0,0
2014-04-01 08:45:00,0.000552315353332,0,0.5,0.0,0.0,0.0,0
2014-04-01 08:50:00,0.0397230905306,0,0.5,0.0,0.0,0.0,0
2014-04-01 08:55:00,0.0354185995632,0,0.5,0.0,0.0,0.0,0
2014-04-01 09:00:00,0.742463354634,0,0.5,0.0,0.0,0.0,0
2014-04-01 09:05:00,0.689886994317,0,0.5,0.0,0.0,0.0,0
2014-04-01 09:10:00,0.657611543314,0,0.5,0.0,0.0,0.0,0
2014-04-01 09:15:00,0.757101207259,0,0.5,0.0,0.0,0.0,0
2014-04-01 09:20:00,0.774742817311,0,0.5,0.0,0.0,0.0,0
2014-04-01 09:25:00,0.644075664586,0,0.5,0.0,0.0,0.0,0
2014-04-01 09:30:00,0.71173491246,0,0.5,0.0,0.0,0.0,0
2014-04-01 09:35:00,0.665470395518,0,0.5,0.0,0.0,0.0,0
2014-04-01 09:40:00,0.649808434721,0,0.5,0.0,0.0,0.0,0
2014-04-01 09:45:00,0.759822340359,0,0.5,0.0,0.0,0.0,0
2014-04-01 09:50:00,0.721695977334,0,0.5,0.0,0.0,0.0,0
2014-04-01 09:55:00,0.659149883007,0,0.5,0.0,0.0,0.0,0
2014-04-01 10:00:00,0.809316011274,0,0.5,0.0,0.0,0.0,0
2014-04-01 10:05:00,0.954913117217,0,0.5,0.0,0.0,0.0,0
2014-04-01 10:10:00,0.928755205455,0,0.5,0.0,0.0,0.0,0
2014-04-01 10:15:00,0.935687947824,0,0.5,0.0,0.0,0.0,0
2014-04-01 10:20:00,0.84257757195,0,0.5,0.0,0.0,0.0,0
2014-04-01 10:25:00,0.878895198285,0,0.5,0.0,0.0,0.0,0
2014-04-01 10:30:00,0.824120144263,0,0.5,0.0,0.0,0.0,0
2014-04-01 10:35:00,0.757811743848,0,0.5,0.0,0.0,0.0,0
2014-04-01 10:40:00,0.829508431183,0,0.5,0.0,0.0,0.0,0
2014-04-01 10:45:00,0.872281889163,0,0.5,0.0,0.0,0.0,0
2014-04-01 10:50:00,0.804248302275,0,0.5,0.0,0.0,0.0,0
2014-04-01 10:55:00,0.928593569515,0,0.5,0.0,0.0,0.0,0
2014-04-01 11:00:00,0.799599742906,0,0.5,0.0,0.0,0.0,0
2014-04-01 11:05:00,0.84868408095,0,0.5,0.0,0.0,0.0,0
2014-04-01 11:10:00,0.793647642983,0,0.5,0.0,0.0,0.0,0
2014-04-01 11:15:00,0.857250660351,0,0.5,0.0,0.0,0.0,0
2014-04-01 11:20:00,0.774279512028,0,0.5,0.0,0.0,0.0,0
2014-04-01 11:25:00,0.827194451367,0,0.5,0.0,0.0,0.0,0
2014-04-01 11:30:00,0.856319800825,0,0.5,0.0,0.0,0.0,0
2014-04-01 11:35:00,0.873912840792,0,0.5,0.0,0.0,0.0,0
2014-04-01 11:40:00,0.888802261004,0,0.5,0.0,0.0,0.0,0
2014-04-01 11:45:00,0.82774924249,0,0.5,0.0,0.0,0.0,0
2014-04-01 11:50:00,0.884109194328,0,0.5,0.0,0.0,0.0,0
2014-04-01 11:55:00,0.880919886453,0,0.5,0.0,0.0,0.0,0
2014-04-01 12:00:00,0.842391711504,0,0.5,0.0,0.0,0.0,0
2014-04-01 12:05:00,0.959747662224,0,0.5,0.0,0.0,0.0,0
2014-04-01 12:10:00,0.894780213843,0,0.5,0.0,0.0,0.0,0
2014-04-01 12:15:00,0.846065585295,0,0.5,0.0,0.0,0.0,0
2014-04-01 12:20:00,0.986491371957,0,0.5,0.0,0.0,0.0,0
2014-04-01 12:25:00,0.963152225951,0,0.5,0.0,0.0,0.0,0
2014-04-01 12:30:00,0.994539106877,0,0.5,0.0,0.0,0.0,0
2014-04-01 12:35:00,0.928248668407,0,0.5,0.0,0.0,0.0,0
2014-04-01 12:40:00,0.856557114813,0,0.5,0.0,0.0,0.0,0
2014-04-01 12:45:00,0.834328432223,0,0.5,0.0,0.0,0.0,0
2014-04-01 12:50:00,0.921646876152,0,0.5,0.0,0.0,0.0,0
2014-04-01 12:55:00,0.994134719212,0,0.5,0.0,0.0,0.0,0
2014-04-01 13:00:00,0.914415139653,0,0.5,0.0,0.0,0.0,0
2014-04-01 13:05:00,0.972667026093,0,0.5,0.0,0.0,0.0,0
2014-04-01 13:10:00,0.846402391729,0,0.5,0.0,0.0,0.0,0
2014-04-01 13:15:00,0.864193416859,0,0.5,0.0,0.0,0.0,0
2014-04-01 13:20:00,0.978302607488,0,0.5,0.0,0.0,0.0,0
2014-04-01 13:25:00,0.944158496396,0,0.5,0.0,0.0,0.0,0
2014-04-01 13:30:00,0.995473115852,0,0.5,0.0,0.0,0.0,0
2014-04-01 13:35:00,0.948248587254,0,0.5,0.0,0.0,0.0,0
2014-04-01 13:40:00,0.873691501762,0,0.5,0.0,0.0,0.0,0
2014-04-01 13:45:00,0.892557059093,0,0.5,0.0,0.0,0.0,0
2014-04-01 13:50:00,0.976986341035,0,0.5,0.0,0.0,0.0,0
2014-04-01 13:55:00,0.897259882544,0,0.5,0.0,0.0,0.0,0
2014-04-01 14:00:00,0.829767160989,0,0.5,0.0,0.0,0.0,0
2014-04-01 14:05:00,0.870961036687,0,0.5,0.0,0.0,0.0,0
2014-04-01 14:10:00,0.88940595549,0,0.5,0.0,0.0,0.0,0
2014-04-01 14:15:00,0.793497854379,0,0.5,0.0,0.0,0.0,0
2014-04-01 14:20:00,0.941393990714,0,0.5,0.0,0.0,0.0,0
2014-04-01 14:25:00,0.79638566092,0,0.5,0.0,0.0,0.0,0
2014-04-01 14:30:00,0.863943384079,0,0.5,0.0,0.0,0.0,0
2014-04-01 14:35:00,0.955304853911,0,0.5,0.0,0.0,0.0,0
2014-04-01 14:40:00,0.878264050384,0,0.5,0.0,0.0,0.0,0
2014-04-01 14:45:00,0.963851879612,0,0.5,0.0,0.0,0.0,0
2014-04-01 14:50:00,0.849535004699,0,0.5,0.0,0.0,0.0,0
2014-04-01 14:55:00,0.990279597716,0,0.5,0.0,0.0,0.0,0
2014-04-01 15:00:00,0.819310410148,0,0.5,0.0,0.0,0.0,0
2014-04-01 15:05:00,0.780176332305,0,0.5,0.0,0.0,0.0,0
2014-04-01 15:10:00,0.970850157269,0,0.5,0.0,0.0,0.0,0
2014-04-01 15:15:00,0.943369253061,0,0.5,0.0,0.0,0.0,0
2014-04-01 15:20:00,0.824457008044,0,0.5,0.0,0.0,0.0,0
2014-04-01 15:25:00,0.996523267126,0,0.5,0.0,0.0,0.0,0
2014-04-01 15:30:00,0.886241653374,0,0.5,0.0,0.0,0.0,0
2014-04-01 15:35:00,0.988825529149,0,0.5,0.0,0.0,0.0,0
2014-04-01 15:40:00,0.886869941231,0,0.5,0.0,0.0,0.0,0
2014-04-01 15:45:00,0.879291518601,0,0.5,0.0,0.0,0.0,0
2014-04-01 15:50:00,0.874094485556,0,0.5,0.0,0.0,0.0,0
2014-04-01 15:55:00,0.847976054563,0,0.5,0.0,0.0,0.0,0
2014-04-01 16:00:00,0.893432823481,0,0.5,0.0,0.0,0.0,0
2014-04-01 16:05:00,0.874884041704,0,0.5,0.0,0.0,0.0,0
2014-04-01 16:10:00,0.779837477663,0,0.5,0.0,0.0,0.0,0
2014-04-01 16:15:00,0.830968818826,0,0.5,0.0,0.0,0.0,0
2014-04-01 16:20:00,0.820154003949,0,0.5,0.0,0.0,0.0,0
2014-04-01 16:25:00,0.969718744805,0,0.5,0.0,0.0,0.0,0
2014-04-01 16:30:00,0.908329225932,0,0.5,0.0,0.0,0.0,0
2014-04-01 16:35:00,0.946002693396,0,0.5,0.0,0.0,0.0,0
2014-04-01 16:40:00,0.990151872913,0,0.5,0.0,0.0,0.0,0
2014-04-01 16:45:00,0.918654156032,0,0.5,0.0,0.0,0.0,0
2014-04-01 16:50:00,0.99604564472,0,0.5,0.0,0.0,0.0,0
2014-04-01 16:55:00,0.842701710756,0,0.5,0.0,0.0,0.0,0
2014-04-01 17:00:00,0.814016913375,0,0.5,0.0,0.0,0.0,0
2014-04-01 17:05:00,0.863629248304,0,0.5,0.0,0.0,0.0,0
2014-04-01 17:10:00,0.879056226162,0,0.5,0.0,0.0,0.0,0
2014-04-01 17:15:00,0.976104032593,0,0.5,0.0,0.0,0.0,0
2014-04-01 17:20:00,0.899432374393,0,0.5,0.0,0.0,0.0,0
2014-04-01 17:25:00,0.838227041751,0,0.5,0.0,0.0,0.0,0
2014-04-01 17:30:00,0.9411931336,0,0.5,0.0,0.0,0.0,0
2014-04-01 17:35:00,0.887064075214,0,0.5,0.0,0.0,0.0,0
2014-04-01 17:40:00,0.808500001578,0,0.5,0.0,0.0,0.0,0
2014-04-01 17:45:00,0.903290711357,0,0.5,0.0,0.0,0.0,0
2014-04-01 17:50:00,0.97976890704,0,0.5,0.0,0.0,0.0,0
2014-04-01 17:55:00,0.964048795715,0,0.5,0.0,0.0,0.0,0
2014-04-01 18:00:00,0.20791854583,0,0.5,0.0,0.0,0.0,0
2014-04-01 18:05:00,0.188742525796,0,0.5,0.0,0.0,0.0,0
2014-04-01 18:10:00,0.162217311769,0,0.5,0.0,0.0,0.0,0
2014-04-01 18:15:00,0.197206120703,0,0.5,0.0,0.0,0.0,0
2014-04-01 18:20:00,0.223029683694,0,0.5,0.0,0.0,0.0,0
2014-04-01 18:25:00,0.187205581393,0,0.5,0.0,0.0,0.0,0
2014-04-01 18:30:00,0.175792242526,0,0.5,0.0,0.0,0.0,0
2014-04-01 18:35:00,0.239423705896,0,0.5,0.0,0.0,0.0,0
2014-04-01 18:40:00,0.229382129914,0,0.5,0.0,0.0,0.0,0
2014-04-01 18:45:00,0.212624221403,0,0.5,0.0,0.0,0.0,0
2014-04-01 18:50:00,0.166771111647,0,0.5,0.0,0.0,0.0,0
2014-04-01 18:55:00,0.167514052865,0,0.5,0.0,0.0,0.0,0
2014-04-01 19:00:00,0.0374359946784,0,0.5,0.0,0.0,0.0,0
2014-04-01 19:05:00,0.0702746418135,0,0.5,0.0,0.0,0.0,0
2014-04-01 19:10:00,0.0382260010417,0,0.5,0.0,0.0,0.0,0
2014-04-01 19:15:00,0.084760552081,0,0.5,0.0,0.0,0.0,0
2014-04-01 19:20:00,0.0943826737829,0,0.5,0.0,0.0,0.0,0
2014-04-01 19:25:00,0.0542771038186,0,0.5,0.0,0.0,0.0,0
2014-04-01 19:30:00,0.0598659819652,0,0.5,0.0,0.0,0.0,0
2014-04-01 19:35:00,0.0763786731142,0,0.5,0.0,0.0,0.0,0
2014-04-01 19:40:00,0.0908105195907,0,0.5,0.0,0.0,0.0,0
2014-04-01 19:45:00,0.0880545848232,0,0.5,0.0,0.0,0.0,0
2014-04-01 19:50:00,0.0345156654126,0,0.5,0.0,0.0,0.0,0
2014-04-01 19:55:00,0.0416507562167,0,0.5,0.0,0.0,0.0,0
2014-04-01 20:00:00,0.0502996273248,0,0.5,0.0,0.0,0.0,0
2014-04-01 20:05:00,0.0464547985201,0,0.5,0.0,0.0,0.0,0
2014-04-01 20:10:00,0.0139382023564,0,0.5,0.0,0.0,0.0,0
2014-04-01 20:15:00,0.0355220895686,0,0.5,0.0,0.0,0.0,0
2014-04-01 20:20:00,0.0518338018189,0,0.5,0.0,0.0,0.0,0
2014-04-01 20:25:00,0.0189450684249,0,0.5,0.0,0.0,0.0,0
2014-04-01 20:30:00,0.0571280416695,0,0.5,0.0,0.0,0.0,0
2014-04-01 20:35:00,0.00924237170659,0,0.5,0.0,0.0,0.0,0
2014-04-01 20:40:00,0.0519145823175,0,0.5,0.0,0.0,0.0,0
2014-04-01 20:45:00,0.0421786900073,0,0.5,0.0,0.0,0.0,0
2014-04-01 20:50:00,0.0245872324862,0,0.5,0.0,0.0,0.0,0
2014-04-01 20:55:00,0.0483296614396,0,0.5,0.0,0.0,0.0,0
2014-04-01 21:00:00,0.0461287620019,0,0.5,0.0,0.0,0.0,0
2014-04-01 21:05:00,0.05482981871,0,0.5,0.0,0.0,0.0,0
2014-04-01 21:10:00,0.0223228802581,0,0.5,0.0,0.0,0.0,0
2014-04-01 21:15:00,0.0405963852065,0,0.5,0.0,0.0,0.0,0
2014-04-01 21:20:00,0.0358075188862,0,0.5,0.0,0.0,0.0,0
2014-04-01 21:25:00,0.0313626136708,0,0.5,0.0,0.0,0.0,0
2014-04-01 21:30:00,0.0523330474875,0,0.5,0.0,0.0,0.0,0
2014-04-01 21:35:00,0.00138707346678,0,0.5,0.0,0.0,0.0,0
2014-04-01 21:40:00,0.0174040947184,0,0.5,0.0,0.0,0.0,0
2014-04-01 21:45:00,0.0321131621321,0,0.5,0.0,0.0,0.0,0
2014-04-01 21:50:00,0.0114428304899,0,0.5,0.0,0.0,0.0,0
2014-04-01 21:55:00,0.0533350324114,0,0.5,0.0,0.0,0.0,0
2014-04-01 22:00:00,0.0372606224736,0,0.5,0.0,0.0,0.0,0
2014-04-01 22:05:00,0.0275529696463,0,0.5,0.0,0.0,0.0,0
2014-04-01 22:10:00,0.046819239924,0,0.5,0.0,0.0,0.0,0
2014-04-01 22:15:00,0.0260087335135,0,0.5,0.0,0.0,0.0,0
2014-04-01 22:20:00,0.0321730714572,0,0.5,0.0,0.0,0.0,0
2014-04-01 22:25:00,0.000375085045776,0,0.5,0.0,0.0,0.0,0
2014-04-01 22:30:00,0.0211360537603,0,0.5,0.0,0.0,0.0,0
2014-04-01 22:35:00,0.00815663882179,0,0.5,0.0,0.0,0.0,0
2014-04-01 22:40:00,0.0396684038928,0,0.5,0.0,0.0,0.0,0
2014-04-01 22:45:00,0.0276184052116,0,0.5,0.0,0.0,0.0,0
2014-04-01 22:50:00,0.0174784707252,0,0.5,0.0,0.0,0.0,0
2014-04-01 22:55:00,0.0269780650953,0,0.5,0.0,0.0,0.0,0
2014-04-01 23:00:00,0.0120020070618,0,0.5,0.0,0.0,0.0,0
2014-04-01 23:05:00,0.0528952362153,0,0.5,0.0,0.0,0.0,0
2014-04-01 23:10:00,0.00310513403198,0,0.5,0.0,0.0,0.0,0
2014-04-01 23:15:00,0.0494847120583,0,0.5,0.0,0.0,0.0,0
2014-04-01 23:20:00,0.0292478701783,0,0.5,0.0,0.0,0.0,0
2014-04-01 23:25:00,0.0353972409227,0,0.5,0.0,0.0,0.0,0
2014-04-01 23:30:00,0.0173162038781,0,0.5,0.0,0.0,0.0,0
2014-04-01 23:35:00,0.0552735875694,0,0.5,0.0,0.0,0.0,0
2014-04-01 23:40:00,0.0161299334679,0,0.5,0.0,0.0,0.0,0
2014-04-01 23:45:00,0.0336786212726,0,0.5,0.0,0.0,0.0,0
2014-04-01 23:50:00,0.0568007655707,0,0.5,0.0,0.0,0.0,0
2014-04-01 23:55:00,0.0503807800929,0,0.5,0.0,0.0,0.0,0
2014-04-02 00:00:00,0.0306198765148,0,0.5,0.0,0.0,0.0,0
2014-04-02 00:05:00,0.0565666437586,0,0.5,0.0,0.0,0.0,0
2014-04-02 00:10:00,0.0400512286116,0,0.5,0.0,0.0,0.0,0
2014-04-02 00:15:00,0.0118972175699,0,0.5,0.0,0.0,0.0,0
2014-04-02 00:20:00,0.0231489938184,0,0.5,0.0,0.0,0.0,0
2014-04-02 00:25:00,0.0190857599687,0,0.5,0.0,0.0,0.0,0
2014-04-02 00:30:00,0.0196298097873,0,0.5,0.0,0.0,0.0,0
2014-04-02 00:35:00,0.0434277809304,0,0.5,0.0,0.0,0.0,0
2014-04-02 00:40:00,0.0333590540609,0,0.5,0.0,0.0,0.0,0
2014-04-02 00:45:00,0.00214769638316,0,0.5,0.0,0.0,0.0,0
2014-04-02 00:50:00,0.0501133899866,0,0.5,0.0,0.0,0.0,0
2014-04-02 00:55:00,0.0169315220466,0,0.5,0.0,0.0,0.0,0
2014-04-02 01:00:00,0.056949541137,0,0.5,0.0,0.0,0.0,0
2014-04-02 01:05:00,0.0544988904061,0,0.5,0.0,0.0,0.0,0
2014-04-02 01:10:00,0.0537182774036,0,0.5,0.0,0.0,0.0,0
2014-04-02 01:15:00,0.0463234273805,0,0.5,0.0,0.0,0.0,0
2014-04-02 01:20:00,0.0125779911763,0,0.5,0.0,0.0,0.0,0
2014-04-02 01:25:00,0.0304086036883,0,0.5,0.0,0.0,0.0,0
2014-04-02 01:30:00,0.0127888190596,0,0.5,0.0,0.0,0.0,0
2014-04-02 01:35:00,0.0148102291975,0,0.5,0.0,0.0,0.0,0
2014-04-02 01:40:00,0.0348842104581,0,0.5,0.0,0.0,0.0,0
2014-04-02 01:45:00,0.00230432363974,0,0.5,0.0,0.0,0.0,0
2014-04-02 01:50:00,0.0553713838015,0,0.5,0.0,0.0,0.0,0
2014-04-02 01:55:00,0.0524692096088,0,0.5,0.0,0.0,0.0,0
2014-04-02 02:00:00,0.0217301403408,0,0.5,0.0,0.0,0.0,0
2014-04-02 02:05:00,0.0294251068048,0,0.5,0.0,0.0,0.0,0
2014-04-02 02:10:00,0.0266076436404,0,0.5,0.0,0.0,0.0,0
2014-04-02 02:15:00,0.0503849067457,0,0.5,0.0,0.0,0.0,0
2014-04-02 02:20:00,0.0393215913159,0,0.5,0.0,0.0,0.0,0
2014-04-02 02:25:00,0.0158637580722,0,0.5,0.0,0.0,0.0,0
2014-04-02 02:30:00,0.0255059766515,0,0.5,0.0,0.0,0.0,0
2014-04-02 02:35:00,0.0244844787664,0,0.5,0.0,0.0,0.0,0
2014-04-02 02:40:00,0.0547928736521,0,0.5,0.0,0.0,0.0,0
2014-04-02 02:45:00,0.0099891461064,0,0.5,0.0,0.0,0.0,0
2014-04-02 02:50:00,0.00508977160102,0,0.5,0.0,0.0,0.0,0
2014-04-02 02:55:00,0.0502945622258,0,0.5,0.0,0.0,0.0,0
2014-04-02 03:00:00,0.0512127334855,0,0.5,0.0,0.0,0.0,0
2014-04-02 03:05:00,0.0497871217505,0,0.5,0.0,0.0,0.0,0
2014-04-02 03:10:00,0.0291710631073,0,0.5,0.0,0.0,0.0,0
2014-04-02 03:15:00,0.0376725081054,0,0.5,0.0,0.0,0.0,0
2014-04-02 03:20:00,0.0321647128047,0,0.5,0.0,0.0,0.0,0
2014-04-02 03:25:00,0.00393951084693,0,0.5,0.0,0.0,0.0,0
2014-04-02 03:30:00,0.0340203440263,0,0.5,0.0,0.0,0.0,0
2014-04-02 03:35:00,0.000748848175328,0,0.5,0.0,0.0,0.0,0
2014-04-02 03:40:00,0.0185425358976,0,0.5,0.0,0.0,0.0,0
2014-04-02 03:45:00,0.0532475018986,0,0.5,0.0,0.0,0.0,0
2014-04-02 03:50:00,0.0173457796466,0,0.5,0.0,0.0,0.0,0
2014-04-02 03:55:00,0.0536780424996,0,0.5,0.0,0.0,0.0,0
2014-04-02 04:00:00,0.0142649722202,0,0.5,0.0,0.0,0.0,0
2014-04-02 04:05:00,0.0179467808156,0,0.5,0.0,0.0,0.0,0
2014-04-02 04:10:00,0.0358817327031,0,0.5,0.0,0.0,0.0,0
2014-04-02 04:15:00,0.0434946720518,0,0.5,0.0,0.0,0.0,0
2014-04-02 04:20:00,0.0286230831777,0,0.5,0.0,0.0,0.0,0
2014-04-02 04:25:00,0.0503801012703,0,0.5,0.0,0.0,0.0,0
2014-04-02 04:30:00,0.00227042908273,0,0.5,0.0,0.0,0.0,0
2014-04-02 04:35:00,0.0526704581858,0,0.5,0.0,0.0,0.0,0
2014-04-02 04:40:00,0.0111890310609,0,0.5,0.0,0.0,0.0,0
2014-04-02 04:45:00,0.0505014252034,0,0.5,0.0,0.0,0.0,0
2014-04-02 04:50:00,0.0228785207724,0,0.5,0.0,0.0,0.0,0
2014-04-02 04:55:00,0.0475594606484,0,0.5,0.0,0.0,0.0,0
2014-04-02 05:00:00,0.0383537506506,0,0.5,0.0,0.0,0.0,0
2014-04-02 05:05:00,0.0100251892443,0,0.5,0.0,0.0,0.0,0
2014-04-02 05:10:00,0.0524334590148,0,0.5,0.0,0.0,0.0,0
2014-04-02 05:15:00,0.0140011546248,0,0.5,0.0,0.0,0.0,0
2014-04-02 05:20:00,0.0139224492661,0,0.5,0.0,0.0,0.0,0
2014-04-02 05:25:00,0.0464977960671,0,0.5,0.0,0.0,0.0,0
2014-04-02 05:30:00,0.00602107274255,0,0.5,0.0,0.0,0.0,0
2014-04-02 05:35:00,0.0126592854075,0,0.5,0.0,0.0,0.0,0
2014-04-02 05:40:00,0.0287539360402,0,0.5,0.0,0.0,0.0,0
2014-04-02 05:45:00,0.0474291665709,0,0.5,0.0,0.0,0.0,0
2014-04-02 05:50:00,0.00839895238766,0,0.5,0.0,0.0,0.0,0
2014-04-02 05:55:00,0.0312678194741,0,0.5,0.0,0.0,0.0,0
2014-04-02 06:00:00,0.0406152998079,0,0.5,0.0,0.0,0.0,0
2014-04-02 06:05:00,0.0491502962893,0,0.5,0.0,0.0,0.0,0
2014-04-02 06:10:00,0.0534345393487,0,0.5,0.0,0.0,0.0,0
2014-04-02 06:15:00,0.0448097660156,0,0.5,0.0,0.0,0.0,0
2014-04-02 06:20:00,0.0372772857344,0,0.5,0.0,0.0,0.0,0
2014-04-02 06:25:00,0.0247504417881,0,0.5,0.0,0.0,0.0,0
2014-04-02 06:30:00,0.00637748557539,0,0.5,0.0,0.0,0.0,0
2014-04-02 06:35:00,0.0405293867881,0,0.5,0.0,0.0,0.0,0
2014-04-02 06:40:00,0.0567016669005,0,0.5,0.0,0.0,0.0,0
2014-04-02 06:45:00,0.0420736619015,0,0.5,0.0,0.0,0.0,0
2014-04-02 06:50:00,0.000925825795393,0,0.5,0.0,0.0,0.0,0
2014-04-02 06:55:00,0.0283300512956,0,0.5,0.0,0.0,0.0,0
2014-04-02 07:00:00,0.0350953565237,0,0.5,0.0,0.0,0.0,0
2014-04-02 07:05:00,0.0393828702197,0,0.5,0.0,0.0,0.0,0
2014-04-02 07:10:00,0.0411001962222,0,0.5,0.0,0.0,0.0,0
2014-04-02 07:15:00,0.0318644338939,0,0.5,0.0,0.0,0.0,0
2014-04-02 07:20:00,0.0127349708685,0,0.5,0.0,0.0,0.0,0
2014-04-02 07:25:00,0.0538137078078,0,0.5,0.0,0.0,0.0,0
2014-04-02 07:30:00,0.0397824491912,0,0.5,0.0,0.0,0.0,0
2014-04-02 07:35:00,0.0135052799324,0,0.5,0.0,0.0,0.0,0
2014-04-02 07:40:00,0.0183902092358,0,0.5,0.0,0.0,0.0,0
2014-04-02 07:45:00,0.0526551906451,0,0.5,0.0,0.0,0.0,0
2014-04-02 07:50:00,0.0506869458485,0,0.5,0.0,0.0,0.0,0
2014-04-02 07:55:00,0.0231232912138,0,0.5,0.0,0.0,0.0,0
2014-04-02 08:00:00,0.00215995476091,0,0.5,0.0,0.0,0.0,0
2014-04-02 08:05:00,0.00274227930106,0,0.5,0.0,0.0,0.0,0
2014-04-02 08:10:00,0.0161956064714,0,0.5,0.0,0.0,0.0,0
2014-04-02 08:15:00,0.0359225761461,0,0.5,0.0,0.0,0.0,0
2014-04-02 08:20:00,0.0333551514599,0,0.653151255357,0.0,0.0,0.0,0
2014-04-02 08:25:00,0.0361914797758,0,0.603671598196,0.0,0.0,0.0,0
2014-04-02 08:30:00,0.0409605967169,0,0.552725654787,0.0,0.0,0.0,0
2014-04-02 08:35:00,0.00105847043296,0,0.66656489004,0.0,0.0,0.0,0
2014-04-02 08:40:00,0.00597606122459,0,0.754458804085,0.0,0.0,0.0,0
2014-04-02 08:45:00,0.0205138413314,0,0.75917589462,0.0,0.0,0.0,0
2014-04-02 08:50:00,0.00882046143236,0,0.747038479206,0.0,0.0,0.0,0
2014-04-02 08:55:00,0.00427508361213,0,0.744200376703,0.0,0.0,0.0,0
2014-04-02 09:00:00,0.741682699862,0,0.999794013154,0.0,0.0,0.0,0
2014-04-02 09:05:00,0.775562474782,0,1.0,0.0,0.0,0.0,1
2014-04-02 09:10:00,0.763378215865,0,0.999,0.0,0.0,0.0,0
2014-04-02 09:15:00,0.775893419151,0,0.999,0.0,0.0,0.0,0
2014-04-02 09:20:00,0.746519141374,0,0.999,0.0,0.0,0.0,0
2014-04-02 09:25:00,0.760020523762,0,0.999,0.0,0.0,0.0,0
2014-04-02 09:30:00,0.66995145904,0,0.999,0.0,0.0,0.0,0
2014-04-02 09:35:00,0.810083324509,0,0.999,0.0,0.0,0.0,0
2014-04-02 09:40:00,0.652734296033,0,0.999,0.0,0.0,0.0,0
2014-04-02 09:45:00,0.658821239709,0,0.999,0.0,0.0,0.0,0
2014-04-02 09:50:00,0.673282284298,0,0.999,0.0,0.0,0.0,0
2014-04-02 09:55:00,0.806649027264,0,0.999,0.0,0.0,0.0,0
2014-04-02 10:00:00,0.959710138301,0,0.999,0.0,0.0,0.0,0
2014-04-02 10:05:00,0.916829498676,0,0.999,0.0,0.0,0.0,0
2014-04-02 10:10:00,0.880059333314,0,0.999,0.0,0.0,0.0,0
2014-04-02 10:15:00,0.855892316623,0,0.999,0.0,0.0,0.0,0
2014-04-02 10:20:00,0.955792742415,0,0.999,0.0,0.0,0.0,0
2014-04-02 10:25:00,0.89481856134,0,0.999,0.0,0.0,0.0,0
2014-04-02 10:30:00,0.950052100509,0,0.999,0.0,0.0,0.0,0
2014-04-02 10:35:00,0.81076849052,0,0.999,0.0,0.0,0.0,0
2014-04-02 10:40:00,0.814587495355,0,0.999,0.0,0.0,0.0,0
2014-04-02 10:45:00,0.930095544876,0,0.999,0.0,0.0,0.0,0
2014-04-02 10:50:00,0.773807701274,0,0.999,0.0,0.0,0.0,0
2014-04-02 10:55:00,0.950317668897,0,0.999,0.0,0.0,0.0,0
2014-04-02 11:00:00,0.880572191644,0,0.999,0.0,0.0,0.0,0
2014-04-02 11:05:00,0.97576022589,0,0.999,0.0,0.0,0.0,0
2014-04-02 11:10:00,0.841791313221,0,0.999,0.0,0.0,0.0,0
2014-04-02 11:15:00,0.927942356792,0,0.999,0.0,0.0,0.0,0
2014-04-02 11:20:00,0.87498295389,0,0.999,0.0,0.0,0.0,0
2014-04-02 11:25:00,0.90768521995,0,0.999,0.0,0.0,0.0,0
2014-04-02 11:30:00,0.879867411875,0,0.999,0.0,0.0,0.0,0
2014-04-02 11:35:00,0.985008144228,0,0.999,0.0,0.0,0.0,0
2014-04-02 11:40:00,0.922522556923,0,0.999,0.0,0.0,0.0,0
2014-04-02 11:45:00,0.822370646393,0,0.999,0.0,0.0,0.0,0
2014-04-02 11:50:00,0.971957390601,0,0.999,0.0,0.0,0.0,0
2014-04-02 11:55:00,0.832075040371,0,0.999,0.0,0.0,0.0,0
2014-04-02 12:00:00,0.855046209606,0,0.999,0.0,0.0,0.0,0
2014-04-02 12:05:00,0.793521160416,0,0.999,0.0,0.0,0.0,0
2014-04-02 12:10:00,0.975675916264,0,0.999,0.0,0.0,0.0,0
2014-04-02 12:15:00,0.835527364573,0,0.999,0.0,0.0,0.0,0
2014-04-02 12:20:00,0.829318635081,0,0.999,0.0,0.0,0.0,0
2014-04-02 12:25:00,0.980309695083,0,0.999,0.0,0.0,0.0,0
2014-04-02 12:30:00,0.954114485534,0,0.999,0.0,0.0,0.0,0
2014-04-02 12:35:00,0.802414991421,0,0.999,0.0,0.0,0.0,0
2014-04-02 12:40:00,0.945849158588,0,0.999,0.0,0.0,0.0,0
2014-04-02 12:45:00,0.978659134646,0,0.999,0.0,0.0,0.0,0
2014-04-02 12:50:00,0.788130217016,0,0.999,0.0,0.0,0.0,0
2014-04-02 12:55:00,0.958609464835,0,0.999,0.0,0.0,0.0,0
2014-04-02 13:00:00,0.89629396468,0,0.999,0.0,0.0,0.0,0
2014-04-02 13:05:00,0.924123572377,0,0.999,0.0,0.0,0.0,0
2014-04-02 13:10:00,0.883824143376,0,0.999,0.0,0.0,0.0,0
2014-04-02 13:15:00,0.930660775756,0,0.999,0.0,0.0,0.0,0
2014-04-02 13:20:00,0.778985207322,0,0.999,0.0,0.0,0.0,0
2014-04-02 13:25:00,0.945493107779,0,0.999,0.0,0.0,0.0,0
2014-04-02 13:30:00,0.778812859386,0,0.999,0.0,0.0,0.0,0
2014-04-02 13:35:00,0.875241871315,0,0.999,0.0,0.0,0.0,0
2014-04-02 13:40:00,0.805692679216,0,0.999,0.0,0.0,0.0,0
2014-04-02 13:45:00,0.959403079477,0,0.999,0.0,0.0,0.0,0
2014-04-02 13:50:00,0.842873335152,0,0.999,0.0,0.0,0.0,0
2014-04-02 13:55:00,0.874966196652,0,0.999,0.0,0.0,0.0,0
2014-04-02 14:00:00,0.869390956521,0,0.999,0.0,0.0,0.0,0
2014-04-02 14:05:00,0.947962999589,0,0.999,0.0,0.0,0.0,0
2014-04-02 14:10:00,0.881366691754,0,0.999,0.0,0.0,0.0,0
2014-04-02 14:15:00,0.951724471456,0,0.999,0.0,0.0,0.0,0
2014-04-02 14:20:00,0.788192333098,0,0.999,0.0,0.0,0.0,0
2014-04-02 14:25:00,0.815183463161,0,0.999,0.0,0.0,0.0,0
2014-04-02 14:30:00,0.897455877957,0,0.999,0.0,0.0,0.0,0
2014-04-02 14:35:00,0.987868623049,0,0.999,0.0,0.0,0.0,0
2014-04-02 14:40:00,0.788477950295,0,0.999,0.0,0.0,0.0,0
2014-04-02 14:45:00,0.781238232475,0,0.999,0.0,0.0,0.0,0
2014-04-02 14:50:00,0.807173533509,0,0.999,0.0,0.0,0.0,0
2014-04-02 14:55:00,0.91794028045,0,0.999,0.0,0.0,0.0,0
2014-04-02 15:00:00,0.862632140473,0,0.999,0.0,0.0,0.0,0
2014-04-02 15:05:00,0.960135605664,0,0.999,0.0,0.0,0.0,0
2014-04-02 15:10:00,0.787872433527,0,0.999,0.0,0.0,0.0,0
2014-04-02 15:15:00,0.81632643257,0,0.999,0.0,0.0,0.0,0
2014-04-02 15:20:00,0.840010258595,0,0.999,0.0,0.0,0.0,0
2014-04-02 15:25:00,0.914688571449,0,0.999,0.0,0.0,0.0,0
2014-04-02 15:30:00,0.928047450725,0,0.999,0.0,0.0,0.0,0
2014-04-02 15:35:00,0.799820404357,0,0.999,0.0,0.0,0.0,0
2014-04-02 15:40:00,0.987165862656,0,0.999,0.0,0.0,0.0,0
2014-04-02 15:45:00,0.849386139643,0,0.999,0.0,0.0,0.0,0
2014-04-02 15:50:00,0.934446826049,0,0.999,0.0,0.0,0.0,0
2014-04-02 15:55:00,0.89125388769,0,0.999,0.0,0.0,0.0,0
2014-04-02 16:00:00,0.822356472176,0,0.999,0.0,0.0,0.0,0
2014-04-02 16:05:00,0.964871122677,0,0.999,0.0,0.0,0.0,0
2014-04-02 16:10:00,0.958473018907,0,0.999,0.0,0.0,0.0,0
2014-04-02 16:15:00,0.861973035656,0,0.999,0.0,0.0,0.0,0
2014-04-02 16:20:00,0.905983418354,0,0.999,0.0,0.0,0.0,0
2014-04-02 16:25:00,0.830372323089,0,0.999,0.0,0.0,0.0,0
2014-04-02 16:30:00,0.929126078885,0,0.999,0.0,0.0,0.0,0
2014-04-02 16:35:00,0.842076024624,0,0.999,0.0,0.0,0.0,0
2014-04-02 16:40:00,0.964379763375,0,0.999,0.0,0.0,0.0,0
2014-04-02 16:45:00,0.821128293947,0,0.999,0.0,0.0,0.0,0
2014-04-02 16:50:00,0.774821578584,0,0.999,0.0,0.0,0.0,0
2014-04-02 16:55:00,0.832814125098,0,0.999,0.0,0.0,0.0,0
2014-04-02 17:00:00,0.815110753922,0,0.999,0.0,0.0,0.0,0
2014-04-02 17:05:00,0.887625133481,0,0.999,0.0,0.0,0.0,0
2014-04-02 17:10:00,0.818002516549,0,0.999,0.0,0.0,0.0,0
2014-04-02 17:15:00,0.945891797424,0,0.999,0.0,0.0,0.0,0
2014-04-02 17:20:00,0.826612642362,0,0.999,0.0,0.0,0.0,0
2014-04-02 17:25:00,0.933040458578,0,0.999,0.0,0.0,0.0,0
2014-04-02 17:30:00,0.903668133317,0,0.999,0.0,0.0,0.0,0
2014-04-02 17:35:00,0.996879582005,0,0.999,0.0,0.0,0.0,0
2014-04-02 17:40:00,1.0,0,0.874532080401,0.0,0.0,0.0,0
2014-04-02 17:45:00,0.97019847835,0,0.881273643912,0.0,0.0,0.0,0
2014-04-02 17:50:00,0.94515884479,0,0.88741559126,0.0,0.0,0.0,0
2014-04-02 17:55:00,0.859776825832,0,0.886119842035,0.0,0.0,0.0,0
2014-04-02 18:00:00,0.223139155872,0,0.855875062934,0.0,0.0,0.0,0
2014-04-02 18:05:00,0.241736586804,0,0.813615786528,0.0,0.0,0.0,0
2014-04-02 18:10:00,0.156402044354,0,0.766955701808,0.0,0.0,0.0,0
2014-04-02 18:15:00,0.203447888149,0,0.709533856668,0.0,0.0,0.0,0
2014-04-02 18:20:00,0.174196866096,0,0.646250981249,0.0,0.0,0.0,0
2014-04-02 18:25:00,0.205273045182,0,0.572739626145,0.0,0.0,0.0,0
2014-04-02 18:30:00,0.196913366391,0,0.504505605716,0.0,0.0,0.0,0
2014-04-02 18:35:00,0.206908994652,0,0.577810683845,0.0,0.0,0.0,0
2014-04-02 18:40:00,0.20464086649,0,0.646459137975,0.0,0.0,0.0,0
2014-04-02 18:45:00,0.242050340475,0,0.700381922718,0.0,0.0,0.0,0
2014-04-02 18:50:00,0.204752770603,0,0.701928664822,0.0,0.0,0.0,0
2014-04-02 18:55:00,0.231638374261,0,0.702776619226,0.0,0.0,0.0,0
2014-04-02 19:00:00,0.0512991628922,0,0.711535961621,0.0,0.0,0.0,0
2014-04-02 19:05:00,0.0588695038219,0,0.723382491812,0.0,0.0,0.0,0
2014-04-02 19:10:00,0.0609376301711,0,0.732493100072,0.0,0.0,0.0,0
2014-04-02 19:15:00,0.0486691220123,0,0.744836109856,0.0,0.0,0.0,0
2014-04-02 19:20:00,0.055137441646,0,0.755748011887,0.0,0.0,0.0,0
2014-04-02 19:25:00,0.0691364327992,0,0.766105975783,0.0,0.0,0.0,0
2014-04-02 19:30:00,0.0679635513358,0,0.7761364679,0.0,0.0,0.0,0
2014-04-02 19:35:00,0.0715635844735,0,0.788298509969,0.0,0.0,0.0,0
2014-04-02 19:40:00,0.0533471180358,0,0.798767852711,0.0,0.0,0.0,0
2014-04-02 19:45:00,0.0510438668993,0,0.810841003618,0.0,0.0,0.0,0
2014-04-02 19:50:00,0.0699751839956,0,0.809613551559,0.0,0.0,0.0,0