timestamp,value,is_anomaly,anomaly_score,S(t)_reward_low_FP_rate,S(t)_reward_low_FN_rate,S(t)_standard,predicted_anomaly
2014-04-01 00:00:00,0.011978797971,0,0.5,0.0,0.0,0.0,0
2014-04-01 00:05:00,0.0170117965894,0,0.5,0.0,0.0,0.0,0
2014-04-01 00:10:00,0.0133424887119,0,0.5,0.0,0.0,0.0,0
2014-04-01 00:15:00,0.0237450837635,0,0.5,0.0,0.0,0.0,0
2014-04-01 00:20:00,0.0148811303971,0,0.5,0.0,0.0,0.0,0
2014-04-01 00:25:00,0.0130803812076,0,0.5,0.0,0.0,0.0,0
2014-04-01 00:30:00,0.0251615035476,0,0.5,0.0,0.0,0.0,0
2014-04-01 00:35:00,0.0195836521462,0,0.5,0.0,0.0,0.0,0
2014-04-01 00:40:00,0.0030296053338,0,0.5,0.0,0.0,0.0,0
2014-04-01 00:45:00,0.00483038499287,0,0.5,0.0,0.0,0.0,0
2014-04-01 00:50:00,0.0214192393932,0,0.5,0.0,0.0,0.0,0
2014-04-01 00:55:00,0.0227456668465,0,0.5,0.0,0.0,0.0,0
2014-04-01 01:00:00,0.0148336566921,0,0.5,0.0,0.0,0.0,0
2014-04-01 01:05:00,0.0150858410074,0,0.5,0.0,0.0,0.0,0
2014-04-01 01:10:00,0.0171948466775,0,0.5,0.0,0.0,0.0,0
2014-04-01 01:15:00,0.011946209193,0,0.5,0.0,0.0,0.0,0
2014-04-01 01:20:00,0.0185086900219,0,0.5,0.0,0.0,0.0,0
2014-04-01 01:25:00,0.00294607424222,0,0.5,0.0,0.0,0.0,0
2014-04-01 01:30:00,0.0261599147861,0,0.5,0.0,0.0,0.0,0
2014-04-01 01:35:00,0.0204129399162,0,0.5,0.0,0.0,0.0,0
2014-04-01 01:40:00,0.0171741926571,0,0.5,0.0,0.0,0.0,0
2014-04-01 01:45:00,0.00860366638287,0,0.5,0.0,0.0,0.0,0
2014-04-01 01:50:00,0.00437446458401,0,0.5,0.0,0.0,0.0,0
2014-04-01 01:55:00,0.0111357695735,0,0.5,0.0,0.0,0.0,0
2014-04-01 02:00:00,0.0180017739234,0,0.5,0.0,0.0,0.0,0
2014-04-01 02:05:00,0.0172432120603,0,0.5,0.0,0.0,0.0,0
2014-04-01 02:10:00,0.0104089250668,0,0.5,0.0,0.0,0.0,0
2014-04-01 02:15:00,0.0166872722135,0,0.5,0.0,0.0,0.0,0
2014-04-01 02:20:00,0.0221440048809,0,0.5,0.0,0.0,0.0,0
2014-04-01 02:25:00,0.000708620431015,0,0.5,0.0,0.0,0.0,0
2014-04-01 02:30:00,0.0122593919077,0,0.5,0.0,0.0,0.0,0
2014-04-01 02:35:00,0.0206416056238,0,0.5,0.0,0.0,0.0,0
2014-04-01 02:40:00,0.01485961557,0,0.5,0.0,0.0,0.0,0
2014-04-01 02:45:00,0.0177268261114,0,0.5,0.0,0.0,0.0,0
2014-04-01 02:50:00,0.014057471014,0,0.5,0.0,0.0,0.0,0
2014-04-01 02:55:00,0.026992743289,0,0.5,0.0,0.0,0.0,0
2014-04-01 03:00:00,0.0014799697262,0,0.5,0.0,0.0,0.0,0
2014-04-01 03:05:00,0.0133597592362,0,0.5,0.0,0.0,0.0,0
2014-04-01 03:10:00,0.00248155928329,0,0.5,0.0,0.0,0.0,0
2014-04-01 03:15:00,0.00434261828462,0,0.5,0.0,0.0,0.0,0
2014-04-01 03:20:00,0.0104197370407,0,0.5,0.0,0.0,0.0,0
2014-04-01 03:25:00,0.00422705319197,0,0.5,0.0,0.0,0.0,0
2014-04-01 03:30:00,0.0262254603841,0,0.5,0.0,0.0,0.0,0
2014-04-01 03:35:00,0.0257654999878,0,0.5,0.0,0.0,0.0,0
2014-04-01 03:40:00,0.00914230032573,0,0.5,0.0,0.0,0.0,0
2014-04-01 03:45:00,0.0174075703765,0,0.5,0.0,0.0,0.0,0
2014-04-01 03:50:00,0.0145223185988,0,0.5,0.0,0.0,0.0,0
2014-04-01 03:55:00,0.0221940553501,0,0.5,0.0,0.0,0.0,0
2014-04-01 04:00:00,0.0170726973532,0,0.5,0.0,0.0,0.0,0
2014-04-01 04:05:00,0.0,0,0.5,0.0,0.0,0.0,0
2014-04-01 04:10:00,0.0207673427607,0,0.5,0.0,0.0,0.0,0
2014-04-01 04:15:00,0.0203229288398,0,0.5,0.0,0.0,0.0,0
2014-04-01 04:20:00,0.0138681861134,0,0.5,0.0,0.0,0.0,0
2014-04-01 04:25:00,0.024571301766,0,0.5,0.0,0.0,0.0,0
2014-04-01 04:30:00,0.0247217574374,0,0.5,0.0,0.0,0.0,0
2014-04-01 04:35:00,0.0142544212113,0,0.5,0.0,0.0,0.0,0
2014-04-01 04:40:00,0.016543052006,0,0.5,0.0,0.0,0.0,0
2014-04-01 04:45:00,0.0271192526833,0,0.5,0.0,0.0,0.0,0
2014-04-01 04:50:00,0.00812725283943,0,0.5,0.0,0.0,0.0,0
2014-04-01 04:55:00,0.00882946793525,0,0.5,0.0,0.0,0.0,0
2014-04-01 05:00:00,0.00496837922848,0,0.5,0.0,0.0,0.0,0
2014-04-01 05:05:00,0.0243793397804,0,0.5,0.0,0.0,0.0,0
2014-04-01 05:10:00,0.0202586950726,0,0.5,0.0,0.0,0.0,0
2014-04-01 05:15:00,0.00286881049614,0,0.5,0.0,0.0,0.0,0
2014-04-01 05:20:00,0.0267176174306,0,0.5,0.0,0.0,0.0,0
2014-04-01 05:25:00,0.0198904880177,0,0.5,0.0,0.0,0.0,0
2014-04-01 05:30:00,0.0231450173952,0,0.5,0.0,0.0,0.0,0
2014-04-01 05:35:00,0.00130383082897,0,0.5,0.0,0.0,0.0,0
2014-04-01 05:40:00,0.0137385664879,0,0.5,0.0,0.0,0.0,0
2014-04-01 05:45:00,0.0190095299036,0,0.5,0.0,0.0,0.0,0
2014-04-01 05:50:00,0.0147725665682,0,0.5,0.0,0.0,0.0,0
2014-04-01 05:55:00,0.018139803101,0,0.5,0.0,0.0,0.0,0
2014-04-01 06:00:00,0.0222563115734,0,0.5,0.0,0.0,0.0,0
2014-04-01 06:05:00,0.0101828810636,0,0.5,0.0,0.0,0.0,0
2014-04-01 06:10:00,0.0230945654458,0,0.5,0.0,0.0,0.0,0
2014-04-01 06:15:00,0.00442783414956,0,0.5,0.0,0.0,0.0,0
2014-04-01 06:20:00,0.00736686221166,0,0.5,0.0,0.0,0.0,0
2014-04-01 06:25:00,0.00117303029385,0,0.5,0.0,0.0,0.0,0
2014-04-01 06:30:00,0.00991311611916,0,0.5,0.0,0.0,0.0,0
2014-04-01 06:35:00,0.0103345684596,0,0.5,0.0,0.0,0.0,0
2014-04-01 06:40:00,0.0219132351772,0,0.5,0.0,0.0,0.0,0
2014-04-01 06:45:00,0.0177718651618,0,0.5,0.0,0.0,0.0,0
2014-04-01 06:50:00,0.0118810639435,0,0.5,0.0,0.0,0.0,0
2014-04-01 06:55:00,0.0177441900045,0,0.5,0.0,0.0,0.0,0
2014-04-01 07:00:00,0.00142993283953,0,0.5,0.0,0.0,0.0,0
2014-04-01 07:05:00,0.00490026281471,0,0.5,0.0,0.0,0.0,0
2014-04-01 07:10:00,0.0170591480771,0,0.5,0.0,0.0,0.0,0
2014-04-01 07:15:00,0.0174516437637,0,0.5,0.0,0.0,0.0,0
2014-04-01 07:20:00,0.0210656901262,0,0.5,0.0,0.0,0.0,0
2014-04-01 07:25:00,0.0109631024861,0,0.5,0.0,0.0,0.0,0
2014-04-01 07:30:00,0.0196616261339,0,0.5,0.0,0.0,0.0,0
2014-04-01 07:35:00,0.0186116175453,0,0.5,0.0,0.0,0.0,0
2014-04-01 07:40:00,0.0262174632523,0,0.5,0.0,0.0,0.0,0
2014-04-01 07:45:00,0.00584914413824,0,0.5,0.0,0.0,0.0,0
2014-04-01 07:50:00,0.0150102852186,0,0.5,0.0,0.0,0.0,0
2014-04-01 07:55:00,0.0163736355084,0,0.5,0.0,0.0,0.0,0
2014-04-01 08:00:00,0.0271771190068,0,0.5,0.0,0.0,0.0,0
2014-04-01 08:05:00,0.00546952061454,0,0.5,0.0,0.0,0.0,0
2014-04-01 08:10:00,0.0142355393226,0,0.5,0.0,0.0,0.0,0
2014-04-01 08:15:00,0.00941656785873,0,0.5,0.0,0.0,0.0,0
2014-04-01 08:20:00,0.0143083535546,0,0.5,0.0,0.0,0.0,0
2014-04-01 08:25:00,0.00631185346619,0,0.5,0.0,0.0,0.0,0
2014-04-01 08:30:00,0.00128917485942,0,0.5,0.0,0.0,0.0,0
2014-04-01 08:35:00,0.0155788157876,0,0.5,0.0,0.0,0.0,0
2014-04-01 08:40:00,0.00913535002951,0,0.5,0.0,0.0,0.0,0
2014-04-01 08:45:00,0.00494571789008,0,0.5,0.0,0.0,0.0,0
2014-04-01 08:50:00,0.00881091216534,0,0.5,0.0,0.0,0.0,0
2014-04-01 08:55:00,0.00133457433086,0,0.5,0.0,0.0,0.0,0
2014-04-01 09:00:00,0.38194183433,0,0.5,0.0,0.0,0.0,0
2014-04-01 09:05:00,0.347763383387,0,0.5,0.0,0.0,0.0,0
2014-04-01 09:10:00,0.369385150876,0,0.5,0.0,0.0,0.0,0
2014-04-01 09:15:00,0.333137621047,0,0.5,0.0,0.0,0.0,0
2014-04-01 09:20:00,0.377580144651,0,0.5,0.0,0.0,0.0,0
2014-04-01 09:25:00,0.338709175931,0,0.5,0.0,0.0,0.0,0
2014-04-01 09:30:00,0.347096778321,0,0.5,0.0,0.0,0.0,0
2014-04-01 09:35:00,0.339493613388,0,0.5,0.0,0.0,0.0,0
2014-04-01 09:40:00,0.361843157949,0,0.5,0.0,0.0,0.0,0
2014-04-01 09:45:00,0.346422153568,0,0.5,0.0,0.0,0.0,0
2014-04-01 09:50:00,0.319114404864,0,0.5,0.0,0.0,0.0,0
2014-04-01 09:55:00,0.307447518776,0,0.5,0.0,0.0,0.0,0
2014-04-01 10:00:00,0.41679150515,0,0.5,0.0,0.0,0.0,0
2014-04-01 10:05:00,0.404440221695,0,0.5,0.0,0.0,0.0,0
2014-04-01 10:10:00,0.362911288325,0,0.5,0.0,0.0,0.0,0
2014-04-01 10:15:00,0.394558460485,0,0.5,0.0,0.0,0.0,0
2014-04-01 10:20:00,0.407143635151,0,0.5,0.0,0.0,0.0,0
2014-04-01 10:25:00,0.440108380046,0,0.5,0.0,0.0,0.0,0
2014-04-01 10:30:00,0.36081219452,0,0.5,0.0,0.0,0.0,0
2014-04-01 10:35:00,0.389581578353,0,0.5,0.0,0.0,0.0,0
2014-04-01 10:40:00,0.43966087039,0,0.5,0.0,0.0,0.0,0
2014-04-01 10:45:00,0.421259042904,0,0.5,0.0,0.0,0.0,0
2014-04-01 10:50:00,0.383399091315,0,0.5,0.0,0.0,0.0,0
2014-04-01 10:55:00,0.442056151254,0,0.5,0.0,0.0,0.0,0
2014-04-01 11:00:00,0.417923145734,0,0.5,0.0,0.0,0.0,0
2014-04-01 11:05:00,0.418470606137,0,0.5,0.0,0.0,0.0,0
2014-04-01 11:10:00,0.470229974887,0,0.5,0.0,0.0,0.0,0
2014-04-01 11:15:00,0.467040349625,0,0.5,0.0,0.0,0.0,0
2014-04-01 11:20:00,0.403337988983,0,0.5,0.0,0.0,0.0,0
2014-04-01 11:25:00,0.379748900265,0,0.5,0.0,0.0,0.0,0
2014-04-01 11:30:00,0.399780910793,0,0.5,0.0,0.0,0.0,0
2014-04-01 11:35:00,0.367833236813,0,0.5,0.0,0.0,0.0,0
2014-04-01 11:40:00,0.36678174302,0,0.5,0.0,0.0,0.0,0
2014-04-01 11:45:00,0.407341353309,0,0.5,0.0,0.0,0.0,0
2014-04-01 11:50:00,0.466380506575,0,0.5,0.0,0.0,0.0,0
2014-04-01 11:55:00,0.45884094404,0,0.5,0.0,0.0,0.0,0
2014-04-01 12:00:00,0.422506614338,0,0.5,0.0,0.0,0.0,0
2014-04-01 12:05:00,0.428355711005,0,0.5,0.0,0.0,0.0,0
2014-04-01 12:10:00,0.367531196574,0,0.5,0.0,0.0,0.0,0
2014-04-01 12:15:00,0.390322209045,0,0.5,0.0,0.0,0.0,0
2014-04-01 12:20:00,0.369580162714,0,0.5,0.0,0.0,0.0,0
2014-04-01 12:25:00,0.448943994599,0,0.5,0.0,0.0,0.0,0
2014-04-01 12:30:00,0.382725262152,0,0.5,0.0,0.0,0.0,0
2014-04-01 12:35:00,0.461396982157,0,0.5,0.0,0.0,0.0,0
2014-04-01 12:40:00,0.436849058507,0,0.5,0.0,0.0,0.0,0
2014-04-01 12:45:00,0.391835774588,0,0.5,0.0,0.0,0.0,0
2014-04-01 12:50:00,0.384038396828,0,0.5,0.0,0.0,0.0,0
2014-04-01 12:55:00,0.435141685949,0,0.5,0.0,0.0,0.0,0
2014-04-01 13:00:00,0.465418749624,0,0.5,0.0,0.0,0.0,0
2014-04-01 13:05:00,0.445554866828,0,0.5,0.0,0.0,0.0,0
2014-04-01 13:10:00,0.405298051099,0,0.5,0.0,0.0,0.0,0
2014-04-01 13:15:00,0.431297137342,0,0.5,0.0,0.0,0.0,0
2014-04-01 13:20:00,0.401184892051,0,0.5,0.0,0.0,0.0,0
2014-04-01 13:25:00,0.476120768231,0,0.5,0.0,0.0,0.0,0
2014-04-01 13:30:00,0.448872717684,0,0.5,0.0,0.0,0.0,0
2014-04-01 13:35:00,0.434236064948,0,0.5,0.0,0.0,0.0,0
2014-04-01 13:40:00,0.413431032836,0,0.5,0.0,0.0,0.0,0
2014-04-01 13:45:00,0.434646526856,0,0.5,0.0,0.0,0.0,0
2014-04-01 13:50:00,0.404543607578,0,0.5,0.0,0.0,0.0,0
2014-04-01 13:55:00,0.370498430584,0,0.5,0.0,0.0,0.0,0
2014-04-01 14:00:00,0.410466796694,0,0.5,0.0,0.0,0.0,0
2014-04-01 14:05:00,0.468759217967,0,0.5,0.0,0.0,0.0,0
2014-04-01 14:10:00,0.435640749971,0,0.5,0.0,0.0,0.0,0
2014-04-01 14:15:00,0.376591289954,0,0.5,0.0,0.0,0.0,0
2014-04-01 14:20:00,0.463806663739,0,0.5,0.0,0.0,0.0,0
2014-04-01 14:25:00,0.396724909417,0,0.5,0.0,0.0,0.0,0
2014-04-01 14:30:00,0.393991489435,0,0.5,0.0,0.0,0.0,0
2014-04-01 14:35:00,0.399797022948,0,0.5,0.0,0.0,0.0,0
2014-04-01 14:40:00,0.430294966389,0,0.5,0.0,0.0,0.0,0
2014-04-01 14:45:00,0.426754892853,0,0.5,0.0,0.0,0.0,0
2014-04-01 14:50:00,0.420954491507,0,0.5,0.0,0.0,0.0,0
2014-04-01 14:55:00,0.445574314376,0,0.5,0.0,0.0,0.0,0
2014-04-01 15:00:00,0.401934485285,0,0.5,0.0,0.0,0.0,0
2014-04-01 15:05:00,0.452622039083,0,0.5,0.0,0.0,0.0,0
2014-04-01 15:10:00,0.386558579039,0,0.5,0.0,0.0,0.0,0
2014-04-01 15:15:00,0.45268260668,0,0.5,0.0,0.0,0.0,0
2014-04-01 15:20:00,0.439746245005,0,0.5,0.0,0.0,0.0,0
2014-04-01 15:25:00,0.441858363028,0,0.5,0.0,0.0,0.0,0
2014-04-01 15:30:00,0.41990174434,0,0.5,0.0,0.0,0.0,0
2014-04-01 15:35:00,0.440093734457,0,0.5,0.0,0.0,0.0,0
2014-04-01 15:40:00,0.37615765257,0,0.5,0.0,0.0,0.0,0
2014-04-01 15:45:00,0.460187888397,0,0.5,0.0,0.0,0.0,0
2014-04-01 15:50:00,0.373517280994,0,0.5,0.0,0.0,0.0,0
2014-04-01 15:55:00,0.383664473373,0,0.5,0.0,0.0,0.0,0
2014-04-01 16:00:00,0.430275523189,0,0.5,0.0,0.0,0.0,0
2014-04-01 16:05:00,0.447982263223,0,0.5,0.0,0.0,0.0,0
2014-04-01 16:10:00,0.375775439641,0,0.5,0.0,0.0,0.0,0
2014-04-01 16:15:00,0.467728556916,0,0.5,0.0,0.0,0.0,0
2014-04-01 16:20:00,0.473482242102,0,0.5,0.0,0.0,0.0,0
2014-04-01 16:25:00,0.433450601393,0,0.5,0.0,0.0,0.0,0
2014-04-01 16:30:00,0.419872162648,0,0.5,0.0,0.0,0.0,0
2014-04-01 16:35:00,0.448198234441,0,0.5,0.0,0.0,0.0,0
2014-04-01 16:40:00,0.403225468511,0,0.5,0.0,0.0,0.0,0
2014-04-01 16:45:00,0.421181042606,0,0.5,0.0,0.0,0.0,0
2014-04-01 16:50:00,0.467226194016,0,0.5,0.0,0.0,0.0,0
2014-04-01 16:55:00,0.471527550545,0,0.5,0.0,0.0,0.0,0
2014-04-01 17:00:00,0.46841589573,0,0.5,0.0,0.0,0.0,0
2014-04-01 17:05:00,0.396049865762,0,0.5,0.0,0.0,0.0,0
2014-04-01 17:10:00,0.39278565505,0,0.5,0.0,0.0,0.0,0
2014-04-01 17:15:00,0.399884342387,0,0.5,0.0,0.0,0.0,0
2014-04-01 17:20:00,0.415525036648,0,0.5,0.0,0.0,0.0,0
2014-04-01 17:25:00,0.401681230786,0,0.5,0.0,0.0,0.0,0
2014-04-01 17:30:00,0.408219160916,0,0.5,0.0,0.0,0.0,0
2014-04-01 17:35:00,0.435050598033,0,0.5,0.0,0.0,0.0,0
2014-04-01 17:40:00,0.450499888629,0,0.5,0.0,0.0,0.0,0
2014-04-01 17:45:00,0.447563584725,0,0.5,0.0,0.0,0.0,0
2014-04-01 17:50:00,0.456150694102,0,0.5,0.0,0.0,0.0,0
2014-04-01 17:55:00,0.370978033905,0,0.5,0.0,0.0,0.0,0
2014-04-01 18:00:00,0.0755682038172,0,0.5,0.0,0.0,0.0,0
2014-04-01 18:05:00,0.107869447669,0,0.5,0.0,0.0,0.0,0
2014-04-01 18:10:00,0.096706565275,0,0.5,0.0,0.0,0.0,0
2014-04-01 18:15:00,0.0986691560915,0,0.5,0.0,0.0,0.0,0
2014-04-01 18:20:00,0.0757795708909,0,0.5,0.0,0.0,0.0,0
2014-04-01 18:25:00,0.0846089913381,0,0.5,0.0,0.0,0.0,0
2014-04-01 18:30:00,0.101291656403,0,0.5,0.0,0.0,0.0,0
2014-04-01 18:35:00,0.11090941903,0,0.5,0.0,0.0,0.0,0
2014-04-01 18:40:00,0.113426863461,0,0.5,0.0,0.0,0.0,0
2014-04-01 18:45:00,0.095284144931,0,0.5,0.0,0.0,0.0,0
2014-04-01 18:50:00,0.0972464258857,0,0.5,0.0,0.0,0.0,0
2014-04-01 18:55:00,0.109771273793,0,0.5,0.0,0.0,0.0,0
2014-04-01 19:00:00,0.0310830680975,0,0.5,0.0,0.0,0.0,0
2014-04-01 19:05:00,0.0304499667283,0,0.5,0.0,0.0,0.0,0
2014-04-01 19:10:00,0.0422859107361,0,0.5,0.0,0.0,0.0,0
2014-04-01 19:15:00,0.0387752590814,0,0.5,0.0,0.0,0.0,0
2014-04-01 19:20:00,0.0424075089475,0,0.5,0.0,0.0,0.0,0
2014-04-01 19:25:00,0.0213461120438,0,0.5,0.0,0.0,0.0,0
2014-04-01 19:30:00,0.0306791385059,0,0.5,0.0,0.0,0.0,0
2014-04-01 19:35:00,0.0403770432664,0,0.5,0.0,0.0,0.0,0
2014-04-01 19:40:00,0.0180809467777,0,0.5,0.0,0.0,0.0,0
2014-04-01 19:45:00,0.0389194466866,0,0.5,0.0,0.0,0.0,0
2014-04-01 19:50:00,0.0202707133741,0,0.5,0.0,0.0,0.0,0
2014-04-01 19:55:00,0.0393297019824,0,0.5,0.0,0.0,0.0,0
2014-04-01 20:00:00,0.0199919450743,0,0.5,0.0,0.0,0.0,0
2014-04-01 20:05:00,0.00831925099404,0,0.5,0.0,0.0,0.0,0
2014-04-01 20:10:00,0.0161272921009,0,0.5,0.0,0.0,0.0,0
2014-04-01 20:15:00,0.0219404622231,0,0.5,0.0,0.0,0.0,0
2014-04-01 20:20:00,0.0206010487859,0,0.5,0.0,0.0,0.0,0
2014-04-01 20:25:00,0.014842101653,0,0.5,0.0,0.0,0.0,0
2014-04-01 20:30:00,0.0280020009983,0,0.5,0.0,0.0,0.0,0
2014-04-01 20:35:00,0.0174069705036,0,0.5,0.0,0.0,0.0,0
2014-04-01 20:40:00,0.0170335658887,0,0.5,0.0,0.0,0.0,0
2014-04-01 20:45:00,0.00466815140885,0,0.5,0.0,0.0,0.0,0
2014-04-01 20:50:00,0.0286362442881,0,0.5,0.0,0.0,0.0,0
2014-04-01 20:55:00,0.00786993666422,0,0.5,0.0,0.0,0.0,0
2014-04-01 21:00:00,0.0150320937546,0,0.5,0.0,0.0,0.0,0
2014-04-01 21:05:00,0.0225598411294,0,0.5,0.0,0.0,0.0,0
2014-04-01 21:10:00,0.00647405781099,0,0.5,0.0,0.0,0.0,0
2014-04-01 21:15:00,0.0150055244551,0,0.5,0.0,0.0,0.0,0
2014-04-01 21:20:00,0.00716417970109,0,0.5,0.0,0.0,0.0,0
2014-04-01 21:25:00,0.0213598615241,0,0.5,0.0,0.0,0.0,0
2014-04-01 21:30:00,0.0160166497567,0,0.5,0.0,0.0,0.0,0
2014-04-01 21:35:00,0.0239932833414,0,0.5,0.0,0.0,0.0,0
2014-04-01 21:40:00,0.0250485611304,0,0.5,0.0,0.0,0.0,0
2014-04-01 21:45:00,0.0183249024714,0,0.5,0.0,0.0,0.0,0
2014-04-01 21:50:00,0.0204216039556,0,0.5,0.0,0.0,0.0,0
2014-04-01 21:55:00,0.0156030665245,0,0.5,0.0,0.0,0.0,0
2014-04-01 22:00:00,0.0105852240183,0,0.5,0.0,0.0,0.0,0
2014-04-01 22:05:00,0.017769944555,0,0.5,0.0,0.0,0.0,0
2014-04-01 22:10:00,0.0248587970594,0,0.5,0.0,0.0,0.0,0
2014-04-01 22:15:00,0.0114639823518,0,0.5,0.0,0.0,0.0,0
2014-04-01 22:20:00,0.0086774293147,0,0.5,0.0,0.0,0.0,0
2014-04-01 22:25:00,0.0106944353067,0,0.5,0.0,0.0,0.0,0
2014-04-01 22:30:00,0.0119739699203,0,0.5,0.0,0.0,0.0,0
2014-04-01 22:35:00,0.00211503387478,0,0.5,0.0,0.0,0.0,0
2014-04-01 22:40:00,0.0136917310166,0,0.5,0.0,0.0,0.0,0
2014-04-01 22:45:00,0.0135792668015,0,0.5,0.0,0.0,0.0,0
2014-04-01 22:50:00,0.0161440087379,0,0.5,0.0,0.0,0.0,0
2014-04-01 22:55:00,0.00999645324078,0,0.5,0.0,0.0,0.0,0
2014-04-01 23:00:00,0.0167091282886,0,0.5,0.0,0.0,0.0,0
2014-04-01 23:05:00,0.0239269842581,0,0.5,0.0,0.0,0.0,0
2014-04-01 23:10:00,0.0260303219636,0,0.5,0.0,0.0,0.0,0
2014-04-01 23:15:00,0.0159060863976,0,0.5,0.0,0.0,0.0,0
2014-04-01 23:20:00,0.00117622903825,0,0.5,0.0,0.0,0.0,0
2014-04-01 23:25:00,0.0264050883553,0,0.5,0.0,0.0,0.0,0
2014-04-01 23:30:00,0.0192344634902,0,0.5,0.0,0.0,0.0,0
2014-04-01 23:35:00,0.00916360078627,0,0.5,0.0,0.0,0.0,0
2014-04-01 23:40:00,0.00402316570316,0,0.5,0.0,0.0,0.0,0
2014-04-01 23:45:00,0.00392136518744,0,0.5,0.0,0.0,0.0,0
2014-04-01 23:50:00,0.00458365981309,0,0.5,0.0,0.0,0.0,0
2014-04-01 23:55:00,0.00125740526823,0,0.5,0.0,0.0,0.0,0
2014-04-02 00:00:00,0.0245504837206,0,0.5,0.0,0.0,0.0,0
2014-04-02 00:05:00,0.0147132700981,0,0.5,0.0,0.0,0.0,0
2014-04-02 00:10:00,0.0190465808377,0,0.5,0.0,0.0,0.0,0
2014-04-02 00:15:00,0.0225349013381,0,0.5,0.0,0.0,0.0,0
2014-04-02 00:20:00,0.0215395047757,0,0.5,0.0,0.0,0.0,0
2014-04-02 00:25:00,0.0240183562096,0,0.5,0.0,0.0,0.0,0
2014-04-02 00:30:00,0.0263225693942,0,0.5,0.0,0.0,0.0,0
2014-04-02 00:35:00,0.0119449799148,0,0.5,0.0,0.0,0.0,0
2014-04-02 00:40:00,0.025862016493,0,0.5,0.0,0.0,0.0,0
2014-04-02 00:45:00,0.0196816566041,0,0.5,0.0,0.0,0.0,0
2014-04-02 00:50:00,0.0019167724265,0,0.5,0.0,0.0,0.0,0
2014-04-02 00:55:00,0.0185518077019,0,0.5,0.0,0.0,0.0,0
2014-04-02 01:00:00,0.0186861025475,0,0.5,0.0,0.0,0.0,0
2014-04-02 01:05:00,0.024651374205,0,0.5,0.0,0.0,0.0,0
2014-04-02 01:10:00,0.0101446377368,0,0.5,0.0,0.0,0.0,0
2014-04-02 01:15:00,0.0159148850057,0,0.5,0.0,0.0,0.0,0
2014-04-02 01:20:00,0.00032488283505,0,0.5,0.0,0.0,0.0,0
2014-04-02 01:25:00,0.00903248063341,0,0.5,0.0,0.0,0.0,0
2014-04-02 01:30:00,0.00168745180083,0,0.5,0.0,0.0,0.0,0
2014-04-02 01:35:00,0.0141989260663,0,0.5,0.0,0.0,0.0,0
2014-04-02 01:40:00,0.0222447042691,0,0.5,0.0,0.0,0.0,0
2014-04-02 01:45:00,0.0056126625335,0,0.5,0.0,0.0,0.0,0
2014-04-02 01:50:00,0.0143504934431,0,0.5,0.0,0.0,0.0,0
2014-04-02 01:55:00,0.00554640560025,0,0.5,0.0,0.0,0.0,0
2014-04-02 02:00:00,0.00327836423101,0,0.5,0.0,0.0,0.0,0
2014-04-02 02:05:00,0.0139028677588,0,0.5,0.0,0.0,0.0,0
2014-04-02 02:10:00,0.00214761650489,0,0.5,0.0,0.0,0.0,0
2014-04-02 02:15:00,0.0159813889745,0,0.5,0.0,0.0,0.0,0
2014-04-02 02:20:00,0.000846158632541,0,0.5,0.0,0.0,0.0,0
2014-04-02 02:25:00,0.00289799453832,0,0.5,0.0,0.0,0.0,0
2014-04-02 02:30:00,0.0149644977079,0,0.5,0.0,0.0,0.0,0
2014-04-02 02:35:00,0.0160917089224,0,0.5,0.0,0.0,0.0,0
2014-04-02 02:40:00,0.000782175317695,0,0.5,0.0,0.0,0.0,0
2014-04-02 02:45:00,0.0156009009482,0,0.5,0.0,0.0,0.0,0
2014-04-02 02:50:00,0.0228178347356,0,0.5,0.0,0.0,0.0,0
2014-04-02 02:55:00,0.0196551497803,0,0.5,0.0,0.0,0.0,0
2014-04-02 03:00:00,0.00356409102732,0,0.5,0.0,0.0,0.0,0
2014-04-02 03:05:00,0.0161207599005,0,0.5,0.0,0.0,0.0,0
2014-04-02 03:10:00,0.0182923766021,0,0.5,0.0,0.0,0.0,0
2014-04-02 03:15:00,0.00100659095996,0,0.5,0.0,0.0,0.0,0
2014-04-02 03:20:00,0.0232763729576,0,0.5,0.0,0.0,0.0,0
2014-04-02 03:25:00,0.0246624485369,0,0.5,0.0,0.0,0.0,0
2014-04-02 03:30:00,0.0231431163968,0,0.5,0.0,0.0,0.0,0
2014-04-02 03:35:00,0.0224402535046,0,0.5,0.0,0.0,0.0,0
2014-04-02 03:40:00,0.0202716741798,0,0.5,0.0,0.0,0.0,0
2014-04-02 03:45:00,0.0172356525143,0,0.5,0.0,0.0,0.0,0
2014-04-02 03:50:00,0.0184658957045,0,0.5,0.0,0.0,0.0,0
2014-04-02 03:55:00,0.0219438503017,0,0.5,0.0,0.0,0.0,0
2014-04-02 04:00:00,0.0180268638156,0,0.5,0.0,0.0,0.0,0
2014-04-02 04:05:00,0.00891411683795,0,0.5,0.0,0.0,0.0,0
2014-04-02 04:10:00,0.0102270887044,0,0.5,0.0,0.0,0.0,0
2014-04-02 04:15:00,0.0244117469343,0,0.5,0.0,0.0,0.0,0
2014-04-02 04:20:00,0.000459204803496,0,0.5,0.0,0.0,0.0,0
2014-04-02 04:25:00,0.0190155809376,0,0.5,0.0,0.0,0.0,0
2014-04-02 04:30:00,0.025982933606,0,0.5,0.0,0.0,0.0,0
2014-04-02 04:35:00,0.0192172214034,0,0.5,0.0,0.0,0.0,0
2014-04-02 04:40:00,0.0270482041256,0,0.5,0.0,0.0,0.0,0
2014-04-02 04:45:00,0.0187086480614,0,0.5,0.0,0.0,0.0,0
2014-04-02 04:50:00,0.000928517018848,0,0.5,0.0,0.0,0.0,0
2014-04-02 04:55:00,0.0225049958189,0,0.5,0.0,0.0,0.0,0
2014-04-02 05:00:00,0.00774098094646,0,0.5,0.0,0.0,0.0,0
2014-04-02 05:05:00,0.0121351610302,0,0.5,0.0,0.0,0.0,0
2014-04-02 05:10:00,0.00848851857211,0,0.5,0.0,0.0,0.0,0
2014-04-02 05:15:00,0.00730338470685,0,0.5,0.0,0.0,0.0,0
2014-04-02 05:20:00,0.0117363349289,0,0.5,0.0,0.0,0.0,0
2014-04-02 05:25:00,0.0103030441537,0,0.5,0.0,0.0,0.0,0
2014-04-02 05:30:00,0.0172331087465,0,0.5,0.0,0.0,0.0,0
2014-04-02 05:35:00,0.0221277514909,0,0.5,0.0,0.0,0.0,0
2014-04-02 05:40:00,0.0080801178081,0,0.5,0.0,0.0,0.0,0
2014-04-02 05:45:00,0.00581078803228,0,0.5,0.0,0.0,0.0,0
2014-04-02 05:50:00,0.0181465485553,0,0.5,0.0,0.0,0.0,0
2014-04-02 05:55:00,0.0182397742023,0,0.5,0.0,0.0,0.0,0
2014-04-02 06:00:00,0.0245226382237,0,0.5,0.0,0.0,0.0,0
2014-04-02 06:05:00,0.000427182275989,0,0.5,0.0,0.0,0.0,0
2014-04-02 06:10:00,0.0232135744014,0,0.5,0.0,0.0,0.0,0
2014-04-02 06:15:00,0.0141752222013,0,0.5,0.0,0.0,0.0,0
2014-04-02 06:20:00,0.0169054658268,0,0.5,0.0,0.0,0.0,0
2014-04-02 06:25:00,0.00248033139194,0,0.5,0.0,0.0,0.0,0
2014-04-02 06:30:00,0.0117692511111,0,0.5,0.0,0.0,0.0,0
2014-04-02 06:35:00,0.00618048059749,0,0.5,0.0,0.0,0.0,0
2014-04-02 06:40:00,0.0069133358392,0,0.5,0.0,0.0,0.0,0
2014-04-02 06:45:00,0.0137149986057,0,0.5,0.0,0.0,0.0,0
2014-04-02 06:50:00,0.0221088262157,0,0.5,0.0,0.0,0.0,0
2014-04-02 06:55:00,0.0202394374532,0,0.5,0.0,0.0,0.0,0
2014-04-02 07:00:00,0.0160806177047,0,0.5,0.0,0.0,0.0,0
2014-04-02 07:05:00,0.0146765209317,0,0.5,0.0,0.0,0.0,0
2014-04-02 07:10:00,0.0116247389054,0,0.5,0.0,0.0,0.0,0
2014-04-02 07:15:00,0.0264710683952,0,0.5,0.0,0.0,0.0,0
2014-04-02 07:20:00,0.0152420156014,0,0.5,0.0,0.0,0.0,0
2014-04-02 07:25:00,0.00690629567624,0,0.5,0.0,0.0,0.0,0
2014-04-02 07:30:00,0.00625638265316,0,0.5,0.0,0.0,0.0,0
2014-04-02 07:35:00,0.016634644531,0,0.5,0.0,0.0,0.0,0
2014-04-02 07:40:00,0.0142249098009,0,0.5,0.0,0.0,0.0,0
2014-04-02 07:45:00,0.000202668316287,0,0.5,0.0,0.0,0.0,0
2014-04-02 07:50:00,0.0225881687059,0,0.5,0.0,0.0,0.0,0
2014-04-02 07:55:00,0.0191598994218,0,0.5,0.0,0.0,0.0,0
2014-04-02 08:00:00,0.0180086485111,0,0.5,0.0,0.0,0.0,0
2014-04-02 08:05:00,0.00186539228539,0,0.5,0.0,0.0,0.0,0
2014-04-02 08:10:00,0.00984857666778,0,0.5,0.0,0.0,0.0,0
2014-04-02 08:15:00,0.0254549783143,0,0.5,0.0,0.0,0.0,0
2014-04-02 08:20:00,0.023473494335,0,0.804442302086,0.0,0.0,0.0,0
2014-04-02 08:25:00,0.00776583423952,0,0.818272392944,0.0,0.0,0.0,0
2014-04-02 08:30:00,0.00426839593652,0,0.833049316089,0.0,0.0,0.0,0
2014-04-02 08:35:00,0.0122176599561,0,0.815118180348,0.0,0.0,0.0,0
2014-04-02 08:40:00,0.00967911437391,0,0.834337224481,0.0,0.0,0.0,0
2014-04-02 08:45:00,0.0185638734697,0,0.835192228567,0.0,0.0,0.0,0
2014-04-02 08:50:00,0.0263002534462,0,0.82304101484,0.0,0.0,0.0,0
2014-04-02 08:55:00,0.00987431664767,0,0.810780600501,0.0,0.0,0.0,0
2014-04-02 09:00:00,0.299736623287,0,0.786084567709,0.0,0.0,0.0,0
2014-04-02 09:05:00,0.3770525446,0,0.997620265502,0.0,0.0,0.0,0
2014-04-02 09:10:00,0.297490006439,0,0.999994709053,0.0,0.0,0.0,1
2014-04-02 09:15:00,0.382156890994,0,0.999,0.0,0.0,0.0,0
2014-04-02 09:20:00,0.355485029044,0,0.999,0.0,0.0,0.0,0
2014-04-02 09:25:00,0.381131735604,0,0.999,0.0,0.0,0.0,0
2014-04-02 09:30:00,0.312456377504,0,0.999,0.0,0.0,0.0,0
2014-04-02 09:35:00,0.297744526905,0,0.999,0.0,0.0,0.0,0
2014-04-02 09:40:00,0.339161911483,0,0.999,0.0,0.0,0.0,0
2014-04-02 09:45:00,0.335683248375,0,0.999,0.0,0.0,0.0,0
2014-04-02 09:50:00,0.324657576821,0,0.999,0.0,0.0,0.0,0
2014-04-02 09:55:00,0.382609517383,0,0.999,0.0,0.0,0.0,0
2014-04-02 10:00:00,0.439653224739,0,0.999,0.0,0.0,0.0,0
2014-04-02 10:05:00,0.422648756789,0,0.999,0.0,0.0,0.0,0
2014-04-02 10:10:00,0.369975206693,0,0.999,0.0,0.0,0.0,0
2014-04-02 10:15:00,0.430331461372,0,0.999,0.0,0.0,0.0,0
2014-04-02 10:20:00,0.429559302652,0,0.999,0.0,0.0,0.0,0
2014-04-02 10:25:00,0.397668946795,0,0.999,0.0,0.0,0.0,0
2014-04-02 10:30:00,0.450447480554,0,0.999,0.0,0.0,0.0,0
2014-04-02 10:35:00,0.37041030422,0,0.999,0.0,0.0,0.0,0
2014-04-02 10:40:00,0.381009961558,0,0.999,0.0,0.0,0.0,0
2014-04-02 10:45:00,0.359452198324,0,0.999,0.0,0.0,0.0,0
2014-04-02 10:50:00,0.436787550932,0,0.999,0.0,0.0,0.0,0
2014-04-02 10:55:00,0.418442821821,0,0.999,0.0,0.0,0.0,0
2014-04-02 11:00:00,0.398619990848,0,0.999,0.0,0.0,0.0,0
2014-04-02 11:05:00,0.382263571368,0,0.999,0.0,0.0,0.0,0
2014-04-02 11:10:00,0.368879225613,0,0.999,0.0,0.0,0.0,0
2014-04-02 11:15:00,0.38258089112,0,0.999,0.0,0.0,0.0,0
2014-04-02 11:20:00,0.413592983281,0,0.999,0.0,0.0,0.0,0
2014-04-02 11:25:00,0.391285972539,0,0.999,0.0,0.0,0.0,0
2014-04-02 11:30:00,0.39256364892,0,0.999,0.0,0.0,0.0,0
2014-04-02 11:35:00,0.459297568688,0,0.999,0.0,0.0,0.0,0
2014-04-02 11:40:00,0.420287329451,0,0.999,0.0,0.0,0.0,0
2014-04-02 11:45:00,0.443460896028,0,0.999,0.0,0.0,0.0,0
2014-04-02 11:50:00,0.368399028975,0,0.999,0.0,0.0,0.0,0
2014-04-02 11:55:00,0.404055625902,0,0.999,0.0,0.0,0.0,0
2014-04-02 12:00:00,0.418996791129,0,0.999,0.0,0.0,0.0,0
2014-04-02 12:05:00,0.387159217861,0,0.999,0.0,0.0,0.0,0
2014-04-02 12:10:00,0.379957047648,0,0.999,0.0,0.0,0.0,0
2014-04-02 12:15:00,0.46153364885,0,0.999,0.0,0.0,0.0,0
2014-04-02 12:20:00,0.469051477061,0,0.999,0.0,0.0,0.0,0
2014-04-02 12:25:00,0.375456341354,0,0.999,0.0,0.0,0.0,0
2014-04-02 12:30:00,0.404842580717,0,0.999,0.0,0.0,0.0,0
2014-04-02 12:35:00,0.471101897316,0,0.999,0.0,0.0,0.0,0
2014-04-02 12:40:00,0.375929962425,0,0.999,0.0,0.0,0.0,0
2014-04-02 12:45:00,0.436883539496,0,0.999,0.0,0.0,0.0,0
2014-04-02 12:50:00,0.472617444561,0,0.999,0.0,0.0,0.0,0
2014-04-02 12:55:00,0.473270209594,0,0.999,0.0,0.0,0.0,0
2014-04-02 13:00:00,0.418652273089,0,0.999,0.0,0.0,0.0,0
2014-04-02 13:05:00,0.385072677706,0,0.999,0.0,0.0,0.0,0
2014-04-02 13:10:00,0.389354592508,0,0.999,0.0,0.0,0.0,0
2014-04-02 13:15:00,0.464195676915,0,0.999,0.0,0.0,0.0,0
2014-04-02 13:20:00,0.466599415857,0,0.999,0.0,0.0,0.0,0
2014-04-02 13:25:00,0.433528276826,0,0.999,0.0,0.0,0.0,0
2014-04-02 13:30:00,0.450759995411,0,0.999,0.0,0.0,0.0,0
2014-04-02 13:35:00,0.447903025899,0,0.999,0.0,0.0,0.0,0
2014-04-02 13:40:00,0.439400239077,0,0.999,0.0,0.0,0.0,0
2014-04-02 13:45:00,0.457411221913,0,0.999,0.0,0.0,0.0,0
2014-04-02 13:50:00,0.441967635439,0,0.999,0.0,0.0,0.0,0
2014-04-02 13:55:00,0.425486207388,0,0.999,0.0,0.0,0.0,0
2014-04-02 14:00:00,0.393249689684,0,0.999,0.0,0.0,0.0,0
2014-04-02 14:05:00,0.448443388059,0,0.999,0.0,0.0,0.0,0
2014-04-02 14:10:00,0.41899731362,0,0.999,0.0,0.0,0.0,0
2014-04-02 14:15:00,0.399546681512,0,0.999,0.0,0.0,0.0,0
2014-04-02 14:20:00,0.454764639008,0,0.999,0.0,0.0,0.0,0
2014-04-02 14:25:00,0.443307119957,0,0.999,0.0,0.0,0.0,0
2014-04-02 14:30:00,0.469505983974,0,0.999,0.0,0.0,0.0,0
2014-04-02 14:35:00,0.38546331256,0,0.999,0.0,0.0,0.0,0
2014-04-02 14:40:00,0.438132769398,0,0.999,0.0,0.0,0.0,0
2014-04-02 14:45:00,0.394042659355,0,0.999,0.0,0.0,0.0,0
2014-04-02 14:50:00,0.465830636635,0,0.999,0.0,0.0,0.0,0
2014-04-02 14:55:00,0.378283657523,0,0.999,0.0,0.0,0.0,0
2014-04-02 15:00:00,0.438913481853,0,0.999,0.0,0.0,0.0,0
2014-04-02 15:05:00,0.453604286652,0,0.999,0.0,0.0,0.0,0
2014-04-02 15:10:00,0.406113393743,0,0.999,0.0,0.0,0.0,0
2014-04-02 15:15:00,0.471357776535,0,0.999,0.0,0.0,0.0,0
2014-04-02 15:20:00,0.460098557953,0,0.999,0.0,0.0,0.0,0
2014-04-02 15:25:00,0.399547850628,0,0.999,0.0,0.0,0.0,0
2014-04-02 15:30:00,0.368290269587,0,0.999,0.0,0.0,0.0,0
2014-04-02 15:35:00,0.39976984786,0,0.999,0.0,0.0,0.0,0
2014-04-02 15:40:00,0.398098865686,0,0.999,0.0,0.0,0.0,0
2014-04-02 15:45:00,0.464370431496,0,0.999,0.0,0.0,0.0,0
2014-04-02 15:50:00,0.472771404143,0,0.999,0.0,0.0,0.0,0
2014-04-02 15:55:00,0.375138835776,0,0.999,0.0,0.0,0.0,0
2014-04-02 16:00:00,0.418788926535,0,0.999,0.0,0.0,0.0,0
2014-04-02 16:05:00,0.427176962991,0,0.999,0.0,0.0,0.0,0
2014-04-02 16:10:00,0.377589440608,0,0.999,0.0,0.0,0.0,0
2014-04-02 16:15:00,0.408576016882,0,0.999,0.0,0.0,0.0,0
2014-04-02 16:20:00,0.401997820023,0,0.999,0.0,0.0,0.0,0
2014-04-02 16:25:00,0.425840354298,0,0.999,0.0,0.0,0.0,0
2014-04-02 16:30:00,0.439465376204,0,0.999,0.0,0.0,0.0,0
2014-04-02 16:35:00,0.444070495809,0,0.999,0.0,0.0,0.0,0
2014-04-02 16:40:00,0.382363236442,0,0.999,0.0,0.0,0.0,0
2014-04-02 16:45:00,0.455989108704,0,0.999,0.0,0.0,0.0,0
2014-04-02 16:50:00,0.44135461891,0,0.999,0.0,0.0,0.0,0
2014-04-02 16:55:00,0.464278066529,0,0.999,0.0,0.0,0.0,0
2014-04-02 17:00:00,0.416398818119,0,0.999,0.0,0.0,0.0,0
2014-04-02 17:05:00,0.464803223395,0,0.999,0.0,0.0,0.0,0
2014-04-02 17:10:00,0.461741904052,0,0.999,0.0,0.0,0.0,0
2014-04-02 17:15:00,0.415209081713,0,0.999,0.0,0.0,0.0,0
2014-04-02 17:20:00,0.40897377768,0,0.999,0.0,0.0,0.0,0
2014-04-02 17:25:00,0.469041200624,0,0.999,0.0,0.0,0.0,0
2014-04-02 17:30:00,0.44534308026,0,0.999,0.0,0.0,0.0,0
2014-04-02 17:35:00,0.468543967393,0,0.999,0.0,0.0,0.0,0
2014-04-02 17:40:00,0.454250815171,0,0.893684554199,0.0,0.0,0.0,0
2014-04-02 17:45:00,0.433815916215,0,0.890825949365,0.0,0.0,0.0,0
2014-04-02 17:50:00,0.380088109569,0,0.887346866295,0.0,0.0,0.0,0
2014-04-02 17:55:00,0.399211027165,0,0.880862940791,0.0,0.0,0.0,0
2014-04-02 18:00:00,0.11568549273,0,0.842313085664,0.0,0.0,0.0,0
2014-04-02 18:05:00,0.0874011170936,0,0.7989712693,0.0,0.0,0.0,0
2014-04-02 18:10:00,0.0775507955414,0,0.748591353797,0.0,0.0,0.0,0
2014-04-02 18:15:00,0.104305501101,0,0.686268041449,0.0,0.0,0.0,0
2014-04-02 18:20:00,0.105457524132,0,0.622906688156,0.0,0.0,0.0,0
2014-04-02 18:25:00,0.0859218574749,0,0.547480772681,0.0,0.0,0.0,0
2014-04-02 18:30:00,0.086453828352,0,0.526715424953,0.0,0.0,0.0,0
2014-04-02 18:35:00,0.0939110624313,0,0.594525235196,0.0,0.0,0.0,0
2014-04-02 18:40:00,0.0744382212949,0,0.653222110805,0.0,0.0,0.0,0
2014-04-02 18:45:00,0.107866836637,0,0.70595996265,0.0,0.0,0.0,0
2014-04-02 18:50:00,0.0872994937587,0,0.710894514164,0.0,0.0,0.0,0
2014-04-02 18:55:00,0.110673413109,0,0.706851786158,0.0,0.0,0.0,0
2014-04-02 19:00:00,0.0391623775677,0,0.71350627392,0.0,0.0,0.0,0
2014-04-02 19:05:00,0.0348567066475,0,0.725359490333,0.0,0.0,0.0,0
2014-04-02 19:10:00,0.0245969051431,0,0.738848484211,0.0,0.0,0.0,0
2014-04-02 19:15:00,0.0304334437176,0,0.747903882339,0.0,0.0,0.0,0
2014-04-02 19:20:00,0.0282539895049,0,0.757220748003,0.0,0.0,0.0,0
2014-04-02 19:25:00,0.0250239412067,0,0.768003150932,0.0,0.0,0.0,0
2014-04-02 19:30:00,0.0405497281801,0,0.773208016422,0.0,0.0,0.0,0
2014-04-02 19:35:00,0.0294331713511,0,0.78499821083,0.0,0.0,0.0,0
2014-04-02 19:40:00,0.040079821732,0,0.791921237004,0.0,0.0,0.0,0
2014-04-02 19:45:00,0.01790017686,0,0.805133504996,0.0,0.0,0.0,0