timestamp,value,is_anomaly,anomaly_score
2014-04-01 00:00:00,0.011978797970953187,0,0.011978797970953187
2014-04-01 00:05:00,0.017011796589443764,0,0.017011796589443764
2014-04-01 00:10:00,0.013342488711889236,0,0.013342488711889236
2014-04-01 00:15:00,0.023745083763476373,0,0.023745083763476373
2014-04-01 00:20:00,0.014881130397059647,0,0.014881130397059647
2014-04-01 00:25:00,0.013080381207586249,0,0.013080381207586249
2014-04-01 00:30:00,0.02516150354760313,0,0.02516150354760313
2014-04-01 00:35:00,0.01958365214618196,0,0.01958365214618196
2014-04-01 00:40:00,0.0030296053337955185,0,0.0030296053337955185
2014-04-01 00:45:00,0.0048303849928677,0,0.0048303849928677
2014-04-01 00:50:00,0.02141923939318604,0,0.02141923939318604
2014-04-01 00:55:00,0.0227456668465174,0,0.0227456668465174
2014-04-01 01:00:00,0.014833656692063503,0,0.014833656692063503
2014-04-01 01:05:00,0.01508584100737733,0,0.01508584100737733
2014-04-01 01:10:00,0.01719484667749816,0,0.01719484667749816
2014-04-01 01:15:00,0.011946209193030523,0,0.011946209193030523
2014-04-01 01:20:00,0.018508690021859397,0,0.018508690021859397
2014-04-01 01:25:00,0.002946074242222203,0,0.002946074242222203
2014-04-01 01:30:00,0.026159914786104476,0,0.026159914786104476
2014-04-01 01:35:00,0.02041293991623621,0,0.02041293991623621
2014-04-01 01:40:00,0.01717419265712157,0,0.01717419265712157
2014-04-01 01:45:00,0.008603666382870247,0,0.008603666382870247
2014-04-01 01:50:00,0.004374464584006317,0,0.004374464584006317
2014-04-01 01:55:00,0.01113576957350959,0,0.01113576957350959
2014-04-01 02:00:00,0.01800177392344822,0,0.01800177392344822
2014-04-01 02:05:00,0.017243212060255447,0,0.017243212060255447
2014-04-01 02:10:00,0.01040892506683417,0,0.01040892506683417
2014-04-01 02:15:00,0.016687272213496144,0,0.016687272213496144
2014-04-01 02:20:00,0.02214400488089247,0,0.02214400488089247
2014-04-01 02:25:00,0.0007086204310148473,0,0.0007086204310148473
2014-04-01 02:30:00,0.012259391907677143,0,0.012259391907677143
2014-04-01 02:35:00,0.02064160562383081,0,0.02064160562383081
2014-04-01 02:40:00,0.014859615570027428,0,0.014859615570027428
2014-04-01 02:45:00,0.017726826111439473,0,0.017726826111439473
2014-04-01 02:50:00,0.01405747101396895,0,0.01405747101396895
2014-04-01 02:55:00,0.026992743289036083,0,0.026992743289036083
2014-04-01 03:00:00,0.0014799697261963566,0,0.0014799697261963566
2014-04-01 03:05:00,0.013359759236237315,0,0.013359759236237315
2014-04-01 03:10:00,0.0024815592832908304,0,0.0024815592832908304
2014-04-01 03:15:00,0.004342618284616712,0,0.004342618284616712
2014-04-01 03:20:00,0.010419737040694365,0,0.010419737040694365
2014-04-01 03:25:00,0.00422705319196982,0,0.00422705319196982
2014-04-01 03:30:00,0.02622546038413381,0,0.02622546038413381
2014-04-01 03:35:00,0.025765499987804925,0,0.025765499987804925
2014-04-01 03:40:00,0.009142300325731555,0,0.009142300325731555
2014-04-01 03:45:00,0.017407570376489746,0,0.017407570376489746
2014-04-01 03:50:00,0.014522318598786263,0,0.014522318598786263
2014-04-01 03:55:00,0.022194055350054573,0,0.022194055350054573
2014-04-01 04:00:00,0.017072697353223087,0,0.017072697353223087
2014-04-01 04:05:00,0.0,0,0.0
2014-04-01 04:10:00,0.0207673427607121,0,0.0207673427607121
2014-04-01 04:15:00,0.0203229288398392,0,0.0203229288398392
2014-04-01 04:20:00,0.013868186113362312,0,0.013868186113362312
2014-04-01 04:25:00,0.024571301766030482,0,0.024571301766030482
2014-04-01 04:30:00,0.024721757437374182,0,0.024721757437374182
2014-04-01 04:35:00,0.014254421211296725,0,0.014254421211296725
2014-04-01 04:40:00,0.016543052005962306,0,0.016543052005962306
2014-04-01 04:45:00,0.027119252683321483,0,0.027119252683321483
2014-04-01 04:50:00,0.008127252839428938,0,0.008127252839428938
2014-04-01 04:55:00,0.008829467935252352,0,0.008829467935252352
2014-04-01 05:00:00,0.004968379228483511,0,0.004968379228483511
2014-04-01 05:05:00,0.02437933978037279,0,0.02437933978037279
2014-04-01 05:10:00,0.020258695072567633,0,0.020258695072567633
2014-04-01 05:15:00,0.0028688104961362947,0,0.0028688104961362947
2014-04-01 05:20:00,0.026717617430559962,0,0.026717617430559962
2014-04-01 05:25:00,0.01989048801768501,0,0.01989048801768501
2014-04-01 05:30:00,0.023145017395206656,0,0.023145017395206656
2014-04-01 05:35:00,0.001303830828966766,0,0.001303830828966766
2014-04-01 05:40:00,0.013738566487862534,0,0.013738566487862534
2014-04-01 05:45:00,0.0190095299035654,0,0.0190095299035654
2014-04-01 05:50:00,0.01477256656817319,0,0.01477256656817319
2014-04-01 05:55:00,0.01813980310103969,0,0.01813980310103969
2014-04-01 06:00:00,0.022256311573403992,0,0.022256311573403992
2014-04-01 06:05:00,0.010182881063579816,0,0.010182881063579816
2014-04-01 06:10:00,0.02309456544583397,0,0.02309456544583397
2014-04-01 06:15:00,0.0044278341495556615,0,0.0044278341495556615
2014-04-01 06:20:00,0.007366862211661358,0,0.007366862211661358
2014-04-01 06:25:00,0.0011730302938528767,0,0.0011730302938528767
2014-04-01 06:30:00,0.009913116119158115,0,0.009913116119158115
2014-04-01 06:35:00,0.010334568459640266,0,0.010334568459640266
2014-04-01 06:40:00,0.0219132351772064,0,0.0219132351772064
2014-04-01 06:45:00,0.01777186516184126,0,0.01777186516184126
2014-04-01 06:50:00,0.011881063943507178,0,0.011881063943507178
2014-04-01 06:55:00,0.01774419000448116,0,0.01774419000448116
2014-04-01 07:00:00,0.0014299328395312692,0,0.0014299328395312692
2014-04-01 07:05:00,0.004900262814712846,0,0.004900262814712846
2014-04-01 07:10:00,0.017059148077146,0,0.017059148077146
2014-04-01 07:15:00,0.017451643763685576,0,0.017451643763685576
2014-04-01 07:20:00,0.02106569012620274,0,0.02106569012620274
2014-04-01 07:25:00,0.010963102486100171,0,0.010963102486100171
2014-04-01 07:30:00,0.019661626133891958,0,0.019661626133891958
2014-04-01 07:35:00,0.01861161754525254,0,0.01861161754525254
2014-04-01 07:40:00,0.02621746325229086,0,0.02621746325229086
2014-04-01 07:45:00,0.00584914413823513,0,0.00584914413823513
2014-04-01 07:50:00,0.01501028521860954,0,0.01501028521860954
2014-04-01 07:55:00,0.016373635508361115,0,0.016373635508361115
2014-04-01 08:00:00,0.027177119006750548,0,0.027177119006750548
2014-04-01 08:05:00,0.005469520614538618,0,0.005469520614538618
2014-04-01 08:10:00,0.014235539322627494,0,0.014235539322627494
2014-04-01 08:15:00,0.009416567858727626,0,0.009416567858727626
2014-04-01 08:20:00,0.01430835355456784,0,0.01430835355456784
2014-04-01 08:25:00,0.006311853466185748,0,0.006311853466185748
2014-04-01 08:30:00,0.0012891748594166474,0,0.0012891748594166474
2014-04-01 08:35:00,0.015578815787631537,0,0.015578815787631537
2014-04-01 08:40:00,0.009135350029510277,0,0.009135350029510277
2014-04-01 08:45:00,0.004945717890077442,0,0.004945717890077442
2014-04-01 08:50:00,0.008810912165337591,0,0.008810912165337591
2014-04-01 08:55:00,0.0013345743308598825,0,0.0013345743308598825
2014-04-01 09:00:00,0.3819418343302185,0,0.3819418343302185
2014-04-01 09:05:00,0.34776338338651097,0,0.34776338338651097
2014-04-01 09:10:00,0.3693851508755353,0,0.3693851508755353
2014-04-01 09:15:00,0.3331376210471021,0,0.3331376210471021
2014-04-01 09:20:00,0.3775801446505099,0,0.3775801446505099
2014-04-01 09:25:00,0.3387091759311886,0,0.3387091759311886
2014-04-01 09:30:00,0.3470967783211651,0,0.3470967783211651
2014-04-01 09:35:00,0.3394936133882764,0,0.3394936133882764
2014-04-01 09:40:00,0.3618431579494152,0,0.3618431579494152
2014-04-01 09:45:00,0.3464221535681436,0,0.3464221535681436
2014-04-01 09:50:00,0.31911440486399906,0,0.31911440486399906
2014-04-01 09:55:00,0.3074475187755377,0,0.3074475187755377
2014-04-01 10:00:00,0.4167915051503443,0,0.4167915051503443
2014-04-01 10:05:00,0.4044402216951115,0,0.4044402216951115
2014-04-01 10:10:00,0.36291128832476655,0,0.36291128832476655
2014-04-01 10:15:00,0.394558460484841,0,0.394558460484841
2014-04-01 10:20:00,0.4071436351511893,0,0.4071436351511893
2014-04-01 10:25:00,0.4401083800456361,0,0.4401083800456361
2014-04-01 10:30:00,0.36081219452046404,0,0.36081219452046404
2014-04-01 10:35:00,0.3895815783532657,0,0.3895815783532657
2014-04-01 10:40:00,0.4396608703899842,0,0.4396608703899842
2014-04-01 10:45:00,0.4212590429040246,0,0.4212590429040246
2014-04-01 10:50:00,0.3833990913149369,0,0.3833990913149369
2014-04-01 10:55:00,0.4420561512540654,0,0.4420561512540654
2014-04-01 11:00:00,0.4179231457335682,0,0.4179231457335682
2014-04-01 11:05:00,0.4184706061367989,0,0.4184706061367989
2014-04-01 11:10:00,0.4702299748867066,0,0.4702299748867066
2014-04-01 11:15:00,0.467040349624642,0,0.467040349624642
2014-04-01 11:20:00,0.40333798898319984,0,0.40333798898319984
2014-04-01 11:25:00,0.37974890026534497,0,0.37974890026534497
2014-04-01 11:30:00,0.3997809107925646,0,0.3997809107925646
2014-04-01 11:35:00,0.3678332368130783,0,0.3678332368130783
2014-04-01 11:40:00,0.3667817430203441,0,0.3667817430203441
2014-04-01 11:45:00,0.4073413533091184,0,0.4073413533091184
2014-04-01 11:50:00,0.4663805065753914,0,0.4663805065753914
2014-04-01 11:55:00,0.4588409440397279,0,0.4588409440397279
2014-04-01 12:00:00,0.4225066143382546,0,0.4225066143382546
2014-04-01 12:05:00,0.4283557110047814,0,0.4283557110047814
2014-04-01 12:10:00,0.3675311965735946,0,0.3675311965735946
2014-04-01 12:15:00,0.3903222090454168,0,0.3903222090454168
2014-04-01 12:20:00,0.3695801627139583,0,0.3695801627139583
2014-04-01 12:25:00,0.4489439945994207,0,0.4489439945994207
2014-04-01 12:30:00,0.38272526215230585,0,0.38272526215230585
2014-04-01 12:35:00,0.4613969821570338,0,0.4613969821570338
2014-04-01 12:40:00,0.4368490585067468,0,0.4368490585067468
2014-04-01 12:45:00,0.3918357745876722,0,0.3918357745876722
2014-04-01 12:50:00,0.3840383968277245,0,0.3840383968277245
2014-04-01 12:55:00,0.4351416859491524,0,0.4351416859491524
2014-04-01 13:00:00,0.4654187496238186,0,0.4654187496238186
2014-04-01 13:05:00,0.4455548668283039,0,0.4455548668283039
2014-04-01 13:10:00,0.40529805109859296,0,0.40529805109859296
2014-04-01 13:15:00,0.4312971373422478,0,0.4312971373422478
2014-04-01 13:20:00,0.40118489205066654,0,0.40118489205066654
2014-04-01 13:25:00,0.4761207682307446,0,0.4761207682307446
2014-04-01 13:30:00,0.4488727176837488,0,0.4488727176837488
2014-04-01 13:35:00,0.434236064948045,0,0.434236064948045
2014-04-01 13:40:00,0.4134310328364162,0,0.4134310328364162
2014-04-01 13:45:00,0.434646526856485,0,0.434646526856485
2014-04-01 13:50:00,0.40454360757793095,0,0.40454360757793095
2014-04-01 13:55:00,0.3704984305836241,0,0.3704984305836241
2014-04-01 14:00:00,0.4104667966942356,0,0.4104667966942356
2014-04-01 14:05:00,0.4687592179670077,0,0.4687592179670077
2014-04-01 14:10:00,0.4356407499705824,0,0.4356407499705824
2014-04-01 14:15:00,0.37659128995387947,0,0.37659128995387947
2014-04-01 14:20:00,0.4638066637385328,0,0.4638066637385328
2014-04-01 14:25:00,0.3967249094168521,0,0.3967249094168521
2014-04-01 14:30:00,0.3939914894354108,0,0.3939914894354108
2014-04-01 14:35:00,0.3997970229481598,0,0.3997970229481598
2014-04-01 14:40:00,0.4302949663890872,0,0.4302949663890872
2014-04-01 14:45:00,0.4267548928525153,0,0.4267548928525153
2014-04-01 14:50:00,0.4209544915072586,0,0.4209544915072586
2014-04-01 14:55:00,0.4455743143760164,0,0.4455743143760164
2014-04-01 15:00:00,0.401934485284713,0,0.401934485284713
2014-04-01 15:05:00,0.4526220390828558,0,0.4526220390828558
2014-04-01 15:10:00,0.38655857903862395,0,0.38655857903862395
2014-04-01 15:15:00,0.4526826066804163,0,0.4526826066804163
2014-04-01 15:20:00,0.43974624500456777,0,0.43974624500456777
2014-04-01 15:25:00,0.4418583630277641,0,0.4418583630277641
2014-04-01 15:30:00,0.4199017443397469,0,0.4199017443397469
2014-04-01 15:35:00,0.4400937344574175,0,0.4400937344574175
2014-04-01 15:40:00,0.3761576525701532,0,0.3761576525701532
2014-04-01 15:45:00,0.4601878883968388,0,0.4601878883968388
2014-04-01 15:50:00,0.3735172809942661,0,0.3735172809942661
2014-04-01 15:55:00,0.3836644733728765,0,0.3836644733728765
2014-04-01 16:00:00,0.4302755231885361,0,0.4302755231885361
2014-04-01 16:05:00,0.4479822632231473,0,0.4479822632231473
2014-04-01 16:10:00,0.3757754396409527,0,0.3757754396409527
2014-04-01 16:15:00,0.4677285569161933,0,0.4677285569161933
2014-04-01 16:20:00,0.4734822421016977,0,0.4734822421016977
2014-04-01 16:25:00,0.4334506013928189,0,0.4334506013928189
2014-04-01 16:30:00,0.4198721626479959,0,0.4198721626479959
2014-04-01 16:35:00,0.4481982344407609,0,0.4481982344407609
2014-04-01 16:40:00,0.4032254685114812,0,0.4032254685114812
2014-04-01 16:45:00,0.4211810426060536,0,0.4211810426060536
2014-04-01 16:50:00,0.467226194015942,0,0.467226194015942
2014-04-01 16:55:00,0.4715275505453678,0,0.4715275505453678
2014-04-01 17:00:00,0.4684158957295875,0,0.4684158957295875
2014-04-01 17:05:00,0.39604986576162976,0,0.39604986576162976
2014-04-01 17:10:00,0.3927856550498558,0,0.3927856550498558
2014-04-01 17:15:00,0.3998843423872679,0,0.3998843423872679
2014-04-01 17:20:00,0.4155250366477677,0,0.4155250366477677
2014-04-01 17:25:00,0.4016812307858199,0,0.4016812307858199
2014-04-01 17:30:00,0.4082191609161329,0,0.4082191609161329
2014-04-01 17:35:00,0.4350505980330106,0,0.4350505980330106
2014-04-01 17:40:00,0.4504998886288496,0,0.4504998886288496
2014-04-01 17:45:00,0.44756358472539903,0,0.44756358472539903
2014-04-01 17:50:00,0.4561506941022488,0,0.4561506941022488
2014-04-01 17:55:00,0.3709780339049333,0,0.3709780339049333
2014-04-01 18:00:00,0.07556820381721388,0,0.07556820381721388
2014-04-01 18:05:00,0.10786944766914602,0,0.10786944766914602
2014-04-01 18:10:00,0.09670656527502118,0,0.09670656527502118
2014-04-01 18:15:00,0.0986691560915001,0,0.0986691560915001
2014-04-01 18:20:00,0.07577957089090469,0,0.07577957089090469
2014-04-01 18:25:00,0.08460899133811621,0,0.08460899133811621
2014-04-01 18:30:00,0.1012916564031943,0,0.1012916564031943
2014-04-01 18:35:00,0.11090941903005876,0,0.11090941903005876
2014-04-01 18:40:00,0.11342686346101633,0,0.11342686346101633
2014-04-01 18:45:00,0.09528414493099098,0,0.09528414493099098
2014-04-01 18:50:00,0.09724642588565574,0,0.09724642588565574
2014-04-01 18:55:00,0.109771273793164,0,0.109771273793164
2014-04-01 19:00:00,0.031083068097500176,0,0.031083068097500176
2014-04-01 19:05:00,0.030449966728273724,0,0.030449966728273724
2014-04-01 19:10:00,0.04228591073614284,0,0.04228591073614284
2014-04-01 19:15:00,0.0387752590814274,0,0.0387752590814274
2014-04-01 19:20:00,0.04240750894748805,0,0.04240750894748805
2014-04-01 19:25:00,0.02134611204382421,0,0.02134611204382421
2014-04-01 19:30:00,0.030679138505865424,0,0.030679138505865424
2014-04-01 19:35:00,0.040377043266421817,0,0.040377043266421817
2014-04-01 19:40:00,0.018080946777651367,0,0.018080946777651367
2014-04-01 19:45:00,0.038919446686613055,0,0.038919446686613055
2014-04-01 19:50:00,0.02027071337414131,0,0.02027071337414131
2014-04-01 19:55:00,0.0393297019824012,0,0.0393297019824012
2014-04-01 20:00:00,0.019991945074322632,0,0.019991945074322632
2014-04-01 20:05:00,0.008319250994039665,0,0.008319250994039665
2014-04-01 20:10:00,0.016127292100936705,0,0.016127292100936705
2014-04-01 20:15:00,0.02194046222308967,0,0.02194046222308967
2014-04-01 20:20:00,0.02060104878587605,0,0.02060104878587605
2014-04-01 20:25:00,0.014842101652967506,0,0.014842101652967506
2014-04-01 20:30:00,0.028002000998313258,0,0.028002000998313258
2014-04-01 20:35:00,0.017406970503627318,0,0.017406970503627318
2014-04-01 20:40:00,0.017033565888732626,0,0.017033565888732626
2014-04-01 20:45:00,0.0046681514088472926,0,0.0046681514088472926
2014-04-01 20:50:00,0.028636244288126226,0,0.028636244288126226
2014-04-01 20:55:00,0.007869936664217893,0,0.007869936664217893
2014-04-01 21:00:00,0.015032093754635231,0,0.015032093754635231
2014-04-01 21:05:00,0.022559841129364388,0,0.022559841129364388
2014-04-01 21:10:00,0.006474057810987435,0,0.006474057810987435
2014-04-01 21:15:00,0.01500552445506966,0,0.01500552445506966
2014-04-01 21:20:00,0.007164179701090436,0,0.007164179701090436
2014-04-01 21:25:00,0.02135986152409715,0,0.02135986152409715
2014-04-01 21:30:00,0.016016649756666012,0,0.016016649756666012
2014-04-01 21:35:00,0.023993283341373677,0,0.023993283341373677
2014-04-01 21:40:00,0.025048561130398377,0,0.025048561130398377
2014-04-01 21:45:00,0.01832490247138425,0,0.01832490247138425
2014-04-01 21:50:00,0.02042160395555596,0,0.02042160395555596
2014-04-01 21:55:00,0.015603066524536928,0,0.015603066524536928
2014-04-01 22:00:00,0.010585224018265095,0,0.010585224018265095
2014-04-01 22:05:00,0.017769944554979013,0,0.017769944554979013
2014-04-01 22:10:00,0.02485879705938588,0,0.02485879705938588
2014-04-01 22:15:00,0.011463982351753894,0,0.011463982351753894
2014-04-01 22:20:00,0.00867742931469662,0,0.00867742931469662
2014-04-01 22:25:00,0.01069443530673018,0,0.01069443530673018
2014-04-01 22:30:00,0.011973969920326014,0,0.011973969920326014
2014-04-01 22:35:00,0.0021150338747848267,0,0.0021150338747848267
2014-04-01 22:40:00,0.013691731016636509,0,0.013691731016636509
2014-04-01 22:45:00,0.013579266801457778,0,0.013579266801457778
2014-04-01 22:50:00,0.01614400873787519,0,0.01614400873787519
2014-04-01 22:55:00,0.009996453240778531,0,0.009996453240778531
2014-04-01 23:00:00,0.016709128288601664,0,0.016709128288601664
2014-04-01 23:05:00,0.02392698425808217,0,0.02392698425808217
2014-04-01 23:10:00,0.02603032196356215,0,0.02603032196356215
2014-04-01 23:15:00,0.015906086397619982,0,0.015906086397619982
2014-04-01 23:20:00,0.0011762290382512995,0,0.0011762290382512995
2014-04-01 23:25:00,0.026405088355293357,0,0.026405088355293357
2014-04-01 23:30:00,0.0192344634902223,0,0.0192344634902223
2014-04-01 23:35:00,0.009163600786267935,0,0.009163600786267935
2014-04-01 23:40:00,0.0040231657031563894,0,0.0040231657031563894
2014-04-01 23:45:00,0.003921365187436284,0,0.003921365187436284
2014-04-01 23:50:00,0.0045836598130894616,0,0.0045836598130894616
2014-04-01 23:55:00,0.0012574052682320673,0,0.0012574052682320673
2014-04-02 00:00:00,0.024550483720618903,0,0.024550483720618903
2014-04-02 00:05:00,0.014713270098113128,0,0.014713270098113128
2014-04-02 00:10:00,0.019046580837652143,0,0.019046580837652143
2014-04-02 00:15:00,0.02253490133814201,0,0.02253490133814201
2014-04-02 00:20:00,0.02153950477565091,0,0.02153950477565091
2014-04-02 00:25:00,0.024018356209626817,0,0.024018356209626817
2014-04-02 00:30:00,0.026322569394187,0,0.026322569394187
2014-04-02 00:35:00,0.011944979914782848,0,0.011944979914782848
2014-04-02 00:40:00,0.025862016492984814,0,0.025862016492984814
2014-04-02 00:45:00,0.019681656604076624,0,0.019681656604076624
2014-04-02 00:50:00,0.0019167724265022753,0,0.0019167724265022753
2014-04-02 00:55:00,0.0185518077018556,0,0.0185518077018556
2014-04-02 01:00:00,0.018686102547500184,0,0.018686102547500184
2014-04-02 01:05:00,0.02465137420495569,0,0.02465137420495569
2014-04-02 01:10:00,0.010144637736785908,0,0.010144637736785908
2014-04-02 01:15:00,0.015914885005670128,0,0.015914885005670128
2014-04-02 01:20:00,0.00032488283505011995,0,0.00032488283505011995
2014-04-02 01:25:00,0.009032480633406337,0,0.009032480633406337
2014-04-02 01:30:00,0.0016874518008307498,0,0.0016874518008307498
2014-04-02 01:35:00,0.014198926066286203,0,0.014198926066286203
2014-04-02 01:40:00,0.022244704269111952,0,0.022244704269111952
2014-04-02 01:45:00,0.005612662533500803,0,0.005612662533500803
2014-04-02 01:50:00,0.01435049344313209,0,0.01435049344313209
2014-04-02 01:55:00,0.0055464056002518854,0,0.0055464056002518854
2014-04-02 02:00:00,0.0032783642310124012,0,0.0032783642310124012
2014-04-02 02:05:00,0.013902867758834264,0,0.013902867758834264
2014-04-02 02:10:00,0.0021476165048905627,0,0.0021476165048905627
2014-04-02 02:15:00,0.015981388974454003,0,0.015981388974454003
2014-04-02 02:20:00,0.0008461586325409527,0,0.0008461586325409527
2014-04-02 02:25:00,0.0028979945383233413,0,0.0028979945383233413
2014-04-02 02:30:00,0.014964497707904615,0,0.014964497707904615
2014-04-02 02:35:00,0.016091708922414162,0,0.016091708922414162
2014-04-02 02:40:00,0.0007821753176948682,0,0.0007821753176948682
2014-04-02 02:45:00,0.015600900948198172,0,0.015600900948198172
2014-04-02 02:50:00,0.022817834735612275,0,0.022817834735612275
2014-04-02 02:55:00,0.01965514978032252,0,0.01965514978032252
2014-04-02 03:00:00,0.0035640910273173295,0,0.0035640910273173295
2014-04-02 03:05:00,0.016120759900500308,0,0.016120759900500308
2014-04-02 03:10:00,0.01829237660208374,0,0.01829237660208374
2014-04-02 03:15:00,0.001006590959962628,0,0.001006590959962628
2014-04-02 03:20:00,0.02327637295760096,0,0.02327637295760096
2014-04-02 03:25:00,0.0246624485369373,0,0.0246624485369373
2014-04-02 03:30:00,0.02314311639684529,0,0.02314311639684529
2014-04-02 03:35:00,0.022440253504585873,0,0.022440253504585873
2014-04-02 03:40:00,0.020271674179796133,0,0.020271674179796133
2014-04-02 03:45:00,0.017235652514287842,0,0.017235652514287842
2014-04-02 03:50:00,0.01846589570451201,0,0.01846589570451201
2014-04-02 03:55:00,0.021943850301739298,0,0.021943850301739298
2014-04-02 04:00:00,0.01802686381558761,0,0.01802686381558761
2014-04-02 04:05:00,0.008914116837952544,0,0.008914116837952544
2014-04-02 04:10:00,0.010227088704425309,0,0.010227088704425309
2014-04-02 04:15:00,0.02441174693433489,0,0.02441174693433489
2014-04-02 04:20:00,0.0004592048034964786,0,0.0004592048034964786
2014-04-02 04:25:00,0.019015580937631036,0,0.019015580937631036
2014-04-02 04:30:00,0.025982933605971332,0,0.025982933605971332
2014-04-02 04:35:00,0.01921722140344053,0,0.01921722140344053
2014-04-02 04:40:00,0.027048204125635,0,0.027048204125635
2014-04-02 04:45:00,0.01870864806141644,0,0.01870864806141644
2014-04-02 04:50:00,0.0009285170188483,0,0.0009285170188483
2014-04-02 04:55:00,0.022504995818947063,0,0.022504995818947063
2014-04-02 05:00:00,0.007740980946463139,0,0.007740980946463139
2014-04-02 05:05:00,0.012135161030176934,0,0.012135161030176934
2014-04-02 05:10:00,0.008488518572106425,0,0.008488518572106425
2014-04-02 05:15:00,0.0073033847068537765,0,0.0073033847068537765
2014-04-02 05:20:00,0.011736334928925115,0,0.011736334928925115
2014-04-02 05:25:00,0.010303044153693416,0,0.010303044153693416
2014-04-02 05:30:00,0.0172331087464911,0,0.0172331087464911
2014-04-02 05:35:00,0.022127751490874287,0,0.022127751490874287
2014-04-02 05:40:00,0.008080117808099219,0,0.008080117808099219
2014-04-02 05:45:00,0.005810788032278036,0,0.005810788032278036
2014-04-02 05:50:00,0.018146548555321874,0,0.018146548555321874
2014-04-02 05:55:00,0.018239774202288467,0,0.018239774202288467
2014-04-02 06:00:00,0.024522638223679463,0,0.024522638223679463
2014-04-02 06:05:00,0.0004271822759887044,0,0.0004271822759887044
2014-04-02 06:10:00,0.023213574401389613,0,0.023213574401389613
2014-04-02 06:15:00,0.0141752222013106,0,0.0141752222013106
2014-04-02 06:20:00,0.016905465826778286,0,0.016905465826778286
2014-04-02 06:25:00,0.002480331391942716,0,0.002480331391942716
2014-04-02 06:30:00,0.01176925111110442,0,0.01176925111110442
2014-04-02 06:35:00,0.006180480597489449,0,0.006180480597489449
2014-04-02 06:40:00,0.006913335839202075,0,0.006913335839202075
2014-04-02 06:45:00,0.013714998605737688,0,0.013714998605737688
2014-04-02 06:50:00,0.022108826215657768,0,0.022108826215657768
2014-04-02 06:55:00,0.02023943745320041,0,0.02023943745320041
2014-04-02 07:00:00,0.016080617704691855,0,0.016080617704691855
2014-04-02 07:05:00,0.014676520931736681,0,0.014676520931736681
2014-04-02 07:10:00,0.011624738905404174,0,0.011624738905404174
2014-04-02 07:15:00,0.026471068395195932,0,0.026471068395195932
2014-04-02 07:20:00,0.015242015601373744,0,0.015242015601373744
2014-04-02 07:25:00,0.006906295676242686,0,0.006906295676242686
2014-04-02 07:30:00,0.006256382653164871,0,0.006256382653164871
2014-04-02 07:35:00,0.016634644531024943,0,0.016634644531024943
2014-04-02 07:40:00,0.014224909800920631,0,0.014224909800920631
2014-04-02 07:45:00,0.00020266831628650876,0,0.00020266831628650876
2014-04-02 07:50:00,0.02258816870593232,0,0.02258816870593232
2014-04-02 07:55:00,0.01915989942176816,0,0.01915989942176816
2014-04-02 08:00:00,0.018008648511148227,0,0.018008648511148227
2014-04-02 08:05:00,0.0018653922853917547,0,0.0018653922853917547
2014-04-02 08:10:00,0.009848576667784107,0,0.009848576667784107
2014-04-02 08:15:00,0.025454978314271782,0,0.025454978314271782
2014-04-02 08:20:00,0.023473494334950155,0,0.023473494334950155
2014-04-02 08:25:00,0.007765834239521006,0,0.007765834239521006
2014-04-02 08:30:00,0.004268395936516656,0,0.004268395936516656
2014-04-02 08:35:00,0.01221765995609642,0,0.01221765995609642
2014-04-02 08:40:00,0.009679114373914631,0,0.009679114373914631
2014-04-02 08:45:00,0.01856387346969348,0,0.01856387346969348
2014-04-02 08:50:00,0.02630025344617891,0,0.02630025344617891
2014-04-02 08:55:00,0.009874316647670068,0,0.009874316647670068
2014-04-02 09:00:00,0.29973662328726275,0,0.29973662328726275
2014-04-02 09:05:00,0.3770525445997341,0,0.3770525445997341
2014-04-02 09:10:00,0.29749000643938195,0,0.29749000643938195
2014-04-02 09:15:00,0.38215689099371336,0,0.38215689099371336
2014-04-02 09:20:00,0.3554850290438273,0,0.3554850290438273
2014-04-02 09:25:00,0.3811317356035395,0,0.3811317356035395
2014-04-02 09:30:00,0.3124563775042901,0,0.3124563775042901
2014-04-02 09:35:00,0.2977445269053933,0,0.2977445269053933
2014-04-02 09:40:00,0.33916191148302155,0,0.33916191148302155
2014-04-02 09:45:00,0.33568324837541275,0,0.33568324837541275
2014-04-02 09:50:00,0.32465757682143026,0,0.32465757682143026
2014-04-02 09:55:00,0.3826095173826659,0,0.3826095173826659
2014-04-02 10:00:00,0.43965322473919255,0,0.43965322473919255
2014-04-02 10:05:00,0.42264875678850333,0,0.42264875678850333
2014-04-02 10:10:00,0.3699752066930715,0,0.3699752066930715
2014-04-02 10:15:00,0.4303314613717473,0,0.4303314613717473
2014-04-02 10:20:00,0.42955930265188597,0,0.42955930265188597
2014-04-02 10:25:00,0.3976689467948437,0,0.3976689467948437
2014-04-02 10:30:00,0.4504474805535581,0,0.4504474805535581
2014-04-02 10:35:00,0.3704103042200663,0,0.3704103042200663
2014-04-02 10:40:00,0.3810099615580972,0,0.3810099615580972
2014-04-02 10:45:00,0.3594521983235169,0,0.3594521983235169
2014-04-02 10:50:00,0.43678755093152394,0,0.43678755093152394
2014-04-02 10:55:00,0.4184428218206415,0,0.4184428218206415
2014-04-02 11:00:00,0.3986199908480899,0,0.3986199908480899
2014-04-02 11:05:00,0.3822635713680419,0,0.3822635713680419
2014-04-02 11:10:00,0.3688792256127618,0,0.3688792256127618
2014-04-02 11:15:00,0.3825808911197818,0,0.3825808911197818
2014-04-02 11:20:00,0.4135929832812783,0,0.4135929832812783
2014-04-02 11:25:00,0.3912859725392264,0,0.3912859725392264
2014-04-02 11:30:00,0.3925636489196934,0,0.3925636489196934
2014-04-02 11:35:00,0.4592975686880276,0,0.4592975686880276
2014-04-02 11:40:00,0.4202873294513321,0,0.4202873294513321
2014-04-02 11:45:00,0.4434608960282931,0,0.4434608960282931
2014-04-02 11:50:00,0.36839902897471904,0,0.36839902897471904
2014-04-02 11:55:00,0.4040556259016044,0,0.4040556259016044
2014-04-02 12:00:00,0.4189967911287507,0,0.4189967911287507
2014-04-02 12:05:00,0.3871592178609282,0,0.3871592178609282
2014-04-02 12:10:00,0.379957047647554,0,0.379957047647554
2014-04-02 12:15:00,0.4615336488500481,0,0.4615336488500481
2014-04-02 12:20:00,0.4690514770610633,0,0.4690514770610633
2014-04-02 12:25:00,0.3754563413544935,0,0.3754563413544935
2014-04-02 12:30:00,0.404842580716872,0,0.404842580716872
2014-04-02 12:35:00,0.4711018973159694,0,0.4711018973159694
2014-04-02 12:40:00,0.3759299624246072,0,0.3759299624246072
2014-04-02 12:45:00,0.4368835394961577,0,0.4368835394961577
2014-04-02 12:50:00,0.4726174445608042,0,0.4726174445608042
2014-04-02 12:55:00,0.4732702095938556,0,0.4732702095938556
2014-04-02 13:00:00,0.4186522730892186,0,0.4186522730892186
2014-04-02 13:05:00,0.3850726777055243,0,0.3850726777055243
2014-04-02 13:10:00,0.3893545925077245,0,0.3893545925077245
2014-04-02 13:15:00,0.4641956769154373,0,0.4641956769154373
2014-04-02 13:20:00,0.4665994158567633,0,0.4665994158567633
2014-04-02 13:25:00,0.43352827682623374,0,0.43352827682623374
2014-04-02 13:30:00,0.4507599954107221,0,0.4507599954107221
2014-04-02 13:35:00,0.44790302589920944,0,0.44790302589920944
2014-04-02 13:40:00,0.43940023907697023,0,0.43940023907697023
2014-04-02 13:45:00,0.457411221912981,0,0.457411221912981
2014-04-02 13:50:00,0.4419676354391671,0,0.4419676354391671
2014-04-02 13:55:00,0.4254862073882217,0,0.4254862073882217
2014-04-02 14:00:00,0.39324968968353896,0,0.39324968968353896
2014-04-02 14:05:00,0.4484433880591473,0,0.4484433880591473
2014-04-02 14:10:00,0.4189973136196934,0,0.4189973136196934
2014-04-02 14:15:00,0.3995466815120843,0,0.3995466815120843
2014-04-02 14:20:00,0.454764639007923,0,0.454764639007923
2014-04-02 14:25:00,0.4433071199566861,0,0.4433071199566861
2014-04-02 14:30:00,0.469505983974255,0,0.469505983974255
2014-04-02 14:35:00,0.3854633125600295,0,0.3854633125600295
2014-04-02 14:40:00,0.43813276939757545,0,0.43813276939757545
2014-04-02 14:45:00,0.3940426593550724,0,0.3940426593550724
2014-04-02 14:50:00,0.46583063663487606,0,0.46583063663487606
2014-04-02 14:55:00,0.3782836575229937,0,0.3782836575229937
2014-04-02 15:00:00,0.4389134818526442,0,0.4389134818526442
2014-04-02 15:05:00,0.4536042866524458,0,0.4536042866524458
2014-04-02 15:10:00,0.4061133937429813,0,0.4061133937429813
2014-04-02 15:15:00,0.4713577765352673,0,0.4713577765352673
2014-04-02 15:20:00,0.4600985579533248,0,0.4600985579533248
2014-04-02 15:25:00,0.3995478506282883,0,0.3995478506282883
2014-04-02 15:30:00,0.3682902695868657,0,0.3682902695868657
2014-04-02 15:35:00,0.39976984785997227,0,0.39976984785997227
2014-04-02 15:40:00,0.39809886568572417,0,0.39809886568572417
2014-04-02 15:45:00,0.4643704314963304,0,0.4643704314963304
2014-04-02 15:50:00,0.4727714041427731,0,0.4727714041427731
2014-04-02 15:55:00,0.37513883577590207,0,0.37513883577590207
2014-04-02 16:00:00,0.4187889265345517,0,0.4187889265345517
2014-04-02 16:05:00,0.4271769629907545,0,0.4271769629907545