timestamp,value,is_anomaly,anomaly_score
2014-04-01 00:00:00,0.0514129750204,0,0.5
2014-04-01 00:05:00,0.0188772101117,0,0.5
2014-04-01 00:10:00,0.0485822627754,0,0.5
2014-04-01 00:15:00,0.00533657448991,0,0.5
2014-04-01 00:20:00,0.00238661608422,0,0.5
2014-04-01 00:25:00,0.0288066191975,0,0.5
2014-04-01 00:30:00,0.00340344096773,0,0.5
2014-04-01 00:35:00,0.0224295491808,0,0.5
2014-04-01 00:40:00,0.0512572206276,0,0.5
2014-04-01 00:45:00,0.0137972385099,0,0.5
2014-04-01 00:50:00,0.040349993455,0,0.5
2014-04-01 00:55:00,0.0172775820098,0,0.5
2014-04-01 01:00:00,0.00256070405614,0,0.5
2014-04-01 01:05:00,0.0318160965095,0,0.5
2014-04-01 01:10:00,0.0477172956928,0,0.5
2014-04-01 01:15:00,0.0234001345498,0,0.5
2014-04-01 01:20:00,0.035280484604,0,0.5
2014-04-01 01:25:00,0.0514427487284,0,0.5
2014-04-01 01:30:00,0.0451357800509,0,0.5
2014-04-01 01:35:00,0.0110758022962,0,0.5
2014-04-01 01:40:00,0.0419167839318,0,0.5
2014-04-01 01:45:00,0.0286835909594,0,0.5
2014-04-01 01:50:00,0.042636083212,0,0.5
2014-04-01 01:55:00,0.0282618571853,0,0.5
2014-04-01 02:00:00,0.00730758246915,0,0.5
2014-04-01 02:05:00,0.0325717537277,0,0.5
2014-04-01 02:10:00,0.0281257152739,0,0.5
2014-04-01 02:15:00,0.0295998730306,0,0.5
2014-04-01 02:20:00,0.0502353572801,0,0.5
2014-04-01 02:25:00,0.051146259236,0,0.5
2014-04-01 02:30:00,0.02591932202,0,0.5
2014-04-01 02:35:00,0.0260447955808,0,0.5
2014-04-01 02:40:00,0.0294435394685,0,0.5
2014-04-01 02:45:00,0.0296951983208,0,0.5
2014-04-01 02:50:00,0.0543217838499,0,0.5
2014-04-01 02:55:00,0.037115862635,0,0.5
2014-04-01 03:00:00,0.0158536919907,0,0.5
2014-04-01 03:05:00,0.0303781789309,0,0.5
2014-04-01 03:10:00,0.0358481197199,0,0.5
2014-04-01 03:15:00,0.0365654347794,0,0.5
2014-04-01 03:20:00,0.03344893896,0,0.5
2014-04-01 03:25:00,0.0101531442472,0,0.5
2014-04-01 03:30:00,0.00191320308005,0,0.5
2014-04-01 03:35:00,0.0193056645446,0,0.5
2014-04-01 03:40:00,0.0244321757345,0,0.5
2014-04-01 03:45:00,0.00352588945359,0,0.5
2014-04-01 03:50:00,0.0465805026068,0,0.5
2014-04-01 03:55:00,0.0196620535397,0,0.5
2014-04-01 04:00:00,0.0522207165103,0,0.5
2014-04-01 04:05:00,0.00881970940108,0,0.5
2014-04-01 04:10:00,0.00324753662236,0,0.5
2014-04-01 04:15:00,0.0275644751232,0,0.5
2014-04-01 04:20:00,0.0108044361828,0,0.5
2014-04-01 04:25:00,0.0535793315718,0,0.5
2014-04-01 04:30:00,0.000581840818885,0,0.5
2014-04-01 04:35:00,0.0235802746108,0,0.5
2014-04-01 04:40:00,0.0529704377016,0,0.5
2014-04-01 04:45:00,0.0219681360029,0,0.5
2014-04-01 04:50:00,0.00531544397883,0,0.5
2014-04-01 04:55:00,0.0173078537926,0,0.5
2014-04-01 05:00:00,0.0284616401096,0,0.5
2014-04-01 05:05:00,0.0105770536149,0,0.5
2014-04-01 05:10:00,0.0266638739579,0,0.5
2014-04-01 05:15:00,0.0478024547817,0,0.5
2014-04-01 05:20:00,0.0498761044112,0,0.5
2014-04-01 05:25:00,0.00280883925412,0,0.5
2014-04-01 05:30:00,0.00919089643354,0,0.5
2014-04-01 05:35:00,0.0157298233604,0,0.5
2014-04-01 05:40:00,0.0339983880527,0,0.5
2014-04-01 05:45:00,0.0206291332143,0,0.5
2014-04-01 05:50:00,0.0482424952687,0,0.5
2014-04-01 05:55:00,0.0409614362538,0,0.5
2014-04-01 06:00:00,0.00573542095062,0,0.5
2014-04-01 06:05:00,0.0356957130758,0,0.5
2014-04-01 06:10:00,0.00645321986088,0,0.5
2014-04-01 06:15:00,0.0145719756027,0,0.5
2014-04-01 06:20:00,0.0101608317415,0,0.5
2014-04-01 06:25:00,0.00988594301711,0,0.5
2014-04-01 06:30:00,0.0352291331355,0,0.5
2014-04-01 06:35:00,0.0322113552311,0,0.5
2014-04-01 06:40:00,0.0100555062217,0,0.5
2014-04-01 06:45:00,0.0565961335328,0,0.5
2014-04-01 06:50:00,0.024107168239,0,0.5
2014-04-01 06:55:00,0.00554182033168,0,0.5
2014-04-01 07:00:00,0.00688518143446,0,0.5
2014-04-01 07:05:00,0.0333711651809,0,0.5
2014-04-01 07:10:00,0.0559614068967,0,0.5
2014-04-01 07:15:00,0.0326884650525,0,0.5
2014-04-01 07:20:00,0.0542448586847,0,0.5
2014-04-01 07:25:00,0.0253817271671,0,0.5
2014-04-01 07:30:00,0.0249077289528,0,0.5
2014-04-01 07:35:00,0.0285757967607,0,0.5
2014-04-01 07:40:00,0.0398612140785,0,0.5
2014-04-01 07:45:00,0.0210076349419,0,0.5
2014-04-01 07:50:00,0.0493769426852,0,0.5
2014-04-01 07:55:00,0.00166671853173,0,0.5
2014-04-01 08:00:00,0.0251319927037,0,0.5
2014-04-01 08:05:00,0.0292037258197,0,0.5
2014-04-01 08:10:00,0.0346938803079,0,0.5
2014-04-01 08:15:00,0.0157745136661,0,0.5
2014-04-01 08:20:00,0.024429764308,0,0.5
2014-04-01 08:25:00,0.0276914756399,0,0.5
2014-04-01 08:30:00,0.0392600960712,0,0.5
2014-04-01 08:35:00,0.0442125455937,0,0.5
2014-04-01 08:40:00,0.0421707893254,0,0.5
2014-04-01 08:45:00,0.0195194618619,0,0.5
2014-04-01 08:50:00,0.0571264948078,0,0.5
2014-04-01 08:55:00,0.048506849273,0,0.5
2014-04-01 09:00:00,0.667913941629,0,0.5
2014-04-01 09:05:00,0.655296485219,0,0.5
2014-04-01 09:10:00,0.678409033964,0,0.5
2014-04-01 09:15:00,0.705293775523,0,0.5
2014-04-01 09:20:00,0.782737875796,0,0.5
2014-04-01 09:25:00,0.768658911186,0,0.5
2014-04-01 09:30:00,0.782824705728,0,0.5
2014-04-01 09:35:00,0.670233398016,0,0.5
2014-04-01 09:40:00,0.732721322636,0,0.5
2014-04-01 09:45:00,0.672428114474,0,0.5
2014-04-01 09:50:00,0.638565358919,0,0.5
2014-04-01 09:55:00,0.750356981881,0,0.5
2014-04-01 10:00:00,0.772568932741,0,0.5
2014-04-01 10:05:00,0.88894766501,0,0.5
2014-04-01 10:10:00,0.884570775807,0,0.5
2014-04-01 10:15:00,0.920565467722,0,0.5
2014-04-01 10:20:00,0.771805285697,0,0.5
2014-04-01 10:25:00,0.91462824818,0,0.5
2014-04-01 10:30:00,0.96249197747,0,0.5
2014-04-01 10:35:00,0.929613595383,0,0.5
2014-04-01 10:40:00,0.907604256155,0,0.5
2014-04-01 10:45:00,0.887720574757,0,0.5
2014-04-01 10:50:00,0.834403329042,0,0.5
2014-04-01 10:55:00,0.902877265702,0,0.5
2014-04-01 11:00:00,0.930144496847,0,0.5
2014-04-01 11:05:00,0.909079475728,0,0.5
2014-04-01 11:10:00,0.946532059512,0,0.5
2014-04-01 11:15:00,0.867546090362,0,0.5
2014-04-01 11:20:00,0.793106639861,0,0.5
2014-04-01 11:25:00,0.892616859763,0,0.5
2014-04-01 11:30:00,0.825788606608,0,0.5
2014-04-01 11:35:00,0.852924455808,0,0.5
2014-04-01 11:40:00,0.769505523494,0,0.5
2014-04-01 11:45:00,0.852551132653,0,0.5
2014-04-01 11:50:00,0.94937832873,0,0.5
2014-04-01 11:55:00,0.888901750922,0,0.5
2014-04-01 12:00:00,0.772724682749,0,0.5
2014-04-01 12:05:00,0.87779205891,0,0.5
2014-04-01 12:10:00,0.837049811877,0,0.5
2014-04-01 12:15:00,0.879552190968,0,0.5
2014-04-01 12:20:00,0.862912470176,0,0.5
2014-04-01 12:25:00,0.983337242469,0,0.5
2014-04-01 12:30:00,0.779890693335,0,0.5
2014-04-01 12:35:00,0.926608206541,0,0.5
2014-04-01 12:40:00,0.964848809223,0,0.5
2014-04-01 12:45:00,0.989562895594,0,0.5
2014-04-01 12:50:00,0.811055980784,0,0.5
2014-04-01 12:55:00,0.891828877141,0,0.5
2014-04-01 13:00:00,0.781439004304,0,0.5
2014-04-01 13:05:00,0.885590221951,0,0.5
2014-04-01 13:10:00,0.800154584896,0,0.5
2014-04-01 13:15:00,0.963021863116,0,0.5
2014-04-01 13:20:00,0.797505486127,0,0.5
2014-04-01 13:25:00,0.888814663028,0,0.5
2014-04-01 13:30:00,0.890599547054,0,0.5
2014-04-01 13:35:00,0.993598703837,0,0.5
2014-04-01 13:40:00,0.92120628977,0,0.5
2014-04-01 13:45:00,0.837276026761,0,0.5
2014-04-01 13:50:00,0.826522205944,0,0.5
2014-04-01 13:55:00,0.800792420388,0,0.5
2014-04-01 14:00:00,0.944648288641,0,0.5
2014-04-01 14:05:00,0.929612754995,0,0.5
2014-04-01 14:10:00,0.911119710461,0,0.5
2014-04-01 14:15:00,0.781009892908,0,0.5
2014-04-01 14:20:00,0.946092012623,0,0.5
2014-04-01 14:25:00,0.918438876172,0,0.5
2014-04-01 14:30:00,0.9920642335,0,0.5
2014-04-01 14:35:00,0.905935089048,0,0.5
2014-04-01 14:40:00,0.841170134736,0,0.5
2014-04-01 14:45:00,0.858906148238,0,0.5
2014-04-01 14:50:00,0.811877603194,0,0.5
2014-04-01 14:55:00,0.936965549566,0,0.5
2014-04-01 15:00:00,0.933537517269,0,0.5
2014-04-01 15:05:00,0.817591507929,0,0.5
2014-04-01 15:10:00,0.807951126585,0,0.5
2014-04-01 15:15:00,0.789319065527,0,0.5
2014-04-01 15:20:00,0.980241856086,0,0.5
2014-04-01 15:25:00,0.825004560081,0,0.5
2014-04-01 15:30:00,0.850407026402,0,0.5
2014-04-01 15:35:00,0.835850879911,0,0.5
2014-04-01 15:40:00,0.866289859995,0,0.5
2014-04-01 15:45:00,0.934984268565,0,0.5
2014-04-01 15:50:00,0.97077996117,0,0.5
2014-04-01 15:55:00,0.813463940804,0,0.5
2014-04-01 16:00:00,0.928674078648,0,0.5
2014-04-01 16:05:00,0.852335959011,0,0.5
2014-04-01 16:10:00,0.99592631502,0,0.5
2014-04-01 16:15:00,0.840069965362,0,0.5
2014-04-01 16:20:00,0.773363910651,0,0.5
2014-04-01 16:25:00,0.889625303084,0,0.5
2014-04-01 16:30:00,0.806185310066,0,0.5
2014-04-01 16:35:00,0.781893257431,0,0.5
2014-04-01 16:40:00,0.931385272309,0,0.5
2014-04-01 16:45:00,0.939157430405,0,0.5
2014-04-01 16:50:00,0.877062514061,0,0.5
2014-04-01 16:55:00,0.926495676314,0,0.5
2014-04-01 17:00:00,0.894794663836,0,0.5
2014-04-01 17:05:00,0.915731166555,0,0.5
2014-04-01 17:10:00,0.908163170834,0,0.5
2014-04-01 17:15:00,0.923967883867,0,0.5
2014-04-01 17:20:00,0.817368325197,0,0.5
2014-04-01 17:25:00,0.833163247118,0,0.5
2014-04-01 17:30:00,0.872322790701,0,0.5
2014-04-01 17:35:00,0.873732448488,0,0.5
2014-04-01 17:40:00,0.948797848813,0,0.5
2014-04-01 17:45:00,0.855729040225,0,0.5
2014-04-01 17:50:00,0.808879204516,0,0.5
2014-04-01 17:55:00,0.82922099762,0,0.5
2014-04-01 18:00:00,0.173978829056,0,0.5
2014-04-01 18:05:00,0.221259035928,0,0.5
2014-04-01 18:10:00,0.197357606252,0,0.5
2014-04-01 18:15:00,0.219152680306,0,0.5
2014-04-01 18:20:00,0.192407576439,0,0.5
2014-04-01 18:25:00,0.235717273285,0,0.5
2014-04-01 18:30:00,0.244295204808,0,0.5
2014-04-01 18:35:00,0.215604954367,0,0.5
2014-04-01 18:40:00,0.233346245871,0,0.5
2014-04-01 18:45:00,0.200796074992,0,0.5
2014-04-01 18:50:00,0.239822660147,0,0.5
2014-04-01 18:55:00,0.230398717972,0,0.5
2014-04-01 19:00:00,0.0943604496711,0,0.5
2014-04-01 19:05:00,0.0707554535802,0,0.5
2014-04-01 19:10:00,0.080750567312,0,0.5
2014-04-01 19:15:00,0.0656190208411,0,0.5
2014-04-01 19:20:00,0.0474520917684,0,0.5
2014-04-01 19:25:00,0.0535751138094,0,0.5
2014-04-01 19:30:00,0.0881005367007,0,0.5
2014-04-01 19:35:00,0.0344440222379,0,0.5
2014-04-01 19:40:00,0.0687313812172,0,0.5
2014-04-01 19:45:00,0.0547102017274,0,0.5
2014-04-01 19:50:00,0.0556198993428,0,0.5
2014-04-01 19:55:00,0.0874965128063,0,0.5
2014-04-01 20:00:00,0.0561468870703,0,0.5
2014-04-01 20:05:00,0.0412211177762,0,0.5
2014-04-01 20:10:00,0.0221425256977,0,0.5
2014-04-01 20:15:00,0.0339984673077,0,0.5
2014-04-01 20:20:00,0.0300669482232,0,0.5
2014-04-01 20:25:00,0.0268664153136,0,0.5
2014-04-01 20:30:00,0.0121834311396,0,0.5
2014-04-01 20:35:00,0.037958938111,0,0.5
2014-04-01 20:40:00,0.0238349743884,0,0.5
2014-04-01 20:45:00,0.0448483974312,0,0.5
2014-04-01 20:50:00,0.0248519168433,0,0.5
2014-04-01 20:55:00,0.0314056956856,0,0.5
2014-04-01 21:00:00,0.00423516225242,0,0.5
2014-04-01 21:05:00,0.0582384533142,0,0.5
2014-04-01 21:10:00,0.030384473024,0,0.5
2014-04-01 21:15:00,0.00261980519592,0,0.5
2014-04-01 21:20:00,0.0323156032039,0,0.5
2014-04-01 21:25:00,0.0512202673283,0,0.5
2014-04-01 21:30:00,0.0456025818545,0,0.5
2014-04-01 21:35:00,0.0414873065031,0,0.5
2014-04-01 21:40:00,0.00923838433432,0,0.5
2014-04-01 21:45:00,0.0390076680674,0,0.5
2014-04-01 21:50:00,0.0452433695257,0,0.5
2014-04-01 21:55:00,0.034107048089,0,0.5
2014-04-01 22:00:00,0.0513228417739,0,0.5
2014-04-01 22:05:00,0.0160891374187,0,0.5
2014-04-01 22:10:00,0.0140953039958,0,0.5
2014-04-01 22:15:00,0.0499965259842,0,0.5
2014-04-01 22:20:00,0.0360250478577,0,0.5
2014-04-01 22:25:00,0.000322609234084,0,0.5
2014-04-01 22:30:00,0.0204459565553,0,0.5
2014-04-01 22:35:00,0.0493262654171,0,0.5
2014-04-01 22:40:00,0.00180302011938,0,0.5
2014-04-01 22:45:00,0.000425645617697,0,0.5
2014-04-01 22:50:00,0.0163334384433,0,0.5
2014-04-01 22:55:00,0.0525388245276,0,0.5
2014-04-01 23:00:00,0.0515851507196,0,0.5
2014-04-01 23:05:00,0.0297029881619,0,0.5
2014-04-01 23:10:00,0.031674127698,0,0.5
2014-04-01 23:15:00,0.0190251386779,0,0.5
2014-04-01 23:20:00,0.0139781329268,0,0.5
2014-04-01 23:25:00,0.0466533902439,0,0.5
2014-04-01 23:30:00,0.00611975567945,0,0.5
2014-04-01 23:35:00,0.0279072275606,0,0.5
2014-04-01 23:40:00,0.036314556899,0,0.5
2014-04-01 23:45:00,0.00597026492647,0,0.5
2014-04-01 23:50:00,0.0297513104696,0,0.5
2014-04-01 23:55:00,0.0330626143598,0,0.5
2014-04-02 00:00:00,0.0424376777326,0,0.5
2014-04-02 00:05:00,0.0134172631013,0,0.5
2014-04-02 00:10:00,0.0167609305438,0,0.5
2014-04-02 00:15:00,0.0325495565309,0,0.5
2014-04-02 00:20:00,0.0561933259194,0,0.5
2014-04-02 00:25:00,0.0124258571202,0,0.5
2014-04-02 00:30:00,0.0563520971354,0,0.5
2014-04-02 00:35:00,0.0408282796676,0,0.5
2014-04-02 00:40:00,0.0472158768973,0,0.5
2014-04-02 00:45:00,0.00511719484591,0,0.5
2014-04-02 00:50:00,0.0171663842521,0,0.5
2014-04-02 00:55:00,0.00329334428342,0,0.5
2014-04-02 01:00:00,0.0212323524219,0,0.5
2014-04-02 01:05:00,0.0560883279939,0,0.5
2014-04-02 01:10:00,0.00601078727478,0,0.5
2014-04-02 01:15:00,0.032140919865,0,0.5
2014-04-02 01:20:00,0.00033987394946,0,0.5
2014-04-02 01:25:00,0.040733401847,0,0.5
2014-04-02 01:30:00,0.0112653783806,0,0.5
2014-04-02 01:35:00,0.0074005541795,0,0.5
2014-04-02 01:40:00,0.0192584896382,0,0.5
2014-04-02 01:45:00,0.0440696394181,0,0.5
2014-04-02 01:50:00,0.00608738983186,0,0.5
2014-04-02 01:55:00,0.0131316062504,0,0.5
2014-04-02 02:00:00,0.000476715599711,0,0.5
2014-04-02 02:05:00,0.0553523394477,0,0.5
2014-04-02 02:10:00,0.0338428847488,0,0.5
2014-04-02 02:15:00,0.0411459518085,0,0.5
2014-04-02 02:20:00,0.0372292040138,0,0.5
2014-04-02 02:25:00,0.00824545499866,0,0.5
2014-04-02 02:30:00,0.0340026233033,0,0.5
2014-04-02 02:35:00,0.00750522672,0,0.5
2014-04-02 02:40:00,0.0229295521035,0,0.5
2014-04-02 02:45:00,0.0325176578162,0,0.5
2014-04-02 02:50:00,0.0319413184411,0,0.5
2014-04-02 02:55:00,0.00679968588775,0,0.5
2014-04-02 03:00:00,0.00196138068156,0,0.5
2014-04-02 03:05:00,0.0456239582897,0,0.5
2014-04-02 03:10:00,0.0414902455631,0,0.5
2014-04-02 03:15:00,0.00467002896432,0,0.5
2014-04-02 03:20:00,0.00727656211842,0,0.5
2014-04-02 03:25:00,0.0510174509058,0,0.5
2014-04-02 03:30:00,0.0439601456737,0,0.5
2014-04-02 03:35:00,0.0569384087992,0,0.5
2014-04-02 03:40:00,0.01451205402,0,0.5
2014-04-02 03:45:00,0.0278781332008,0,0.5
2014-04-02 03:50:00,0.0135100721128,0,0.5
2014-04-02 03:55:00,0.0355952532572,0,0.5
2014-04-02 04:00:00,0.00659050825321,0,0.5
2014-04-02 04:05:00,0.00726670994626,0,0.5
2014-04-02 04:10:00,0.00410232200769,0,0.5
2014-04-02 04:15:00,0.0396417359291,0,0.5
2014-04-02 04:20:00,0.0282365346018,0,0.5
2014-04-02 04:25:00,0.0353054880236,0,0.5
2014-04-02 04:30:00,0.0502581428697,0,0.5
2014-04-02 04:35:00,0.0423137681364,0,0.5
2014-04-02 04:40:00,0.0263872644138,0,0.5
2014-04-02 04:45:00,0.0562636148429,0,0.5
2014-04-02 04:50:00,0.0260747534946,0,0.5
2014-04-02 04:55:00,0.00642109583435,0,0.5
2014-04-02 05:00:00,0.0567380138843,0,0.5
2014-04-02 05:05:00,0.00129739482011,0,0.5
2014-04-02 05:10:00,0.0314269726993,0,0.5
2014-04-02 05:15:00,0.0176623083636,0,0.5
2014-04-02 05:20:00,0.0287784349883,0,0.5
2014-04-02 05:25:00,0.031931705479,0,0.5
2014-04-02 05:30:00,0.0137179425739,0,0.5
2014-04-02 05:35:00,0.0318257102048,0,0.5
2014-04-02 05:40:00,0.0432131247054,0,0.5
2014-04-02 05:45:00,0.0152278970749,0,0.5
2014-04-02 05:50:00,0.0219114240682,0,0.5
2014-04-02 05:55:00,0.0153269558866,0,0.5
2014-04-02 06:00:00,0.0469001920826,0,0.5
2014-04-02 06:05:00,0.0414365002435,0,0.5
2014-04-02 06:10:00,0.0497948423945,0,0.5
2014-04-02 06:15:00,0.00971375864024,0,0.5
2014-04-02 06:20:00,0.0041990308109,0,0.5
2014-04-02 06:25:00,0.00681741150785,0,0.5
2014-04-02 06:30:00,0.00919746897336,0,0.5
2014-04-02 06:35:00,0.0304665483224,0,0.5
2014-04-02 06:40:00,0.0554950924724,0,0.5
2014-04-02 06:45:00,0.020414230196,0,0.5
2014-04-02 06:50:00,0.0547860284518,0,0.5
2014-04-02 06:55:00,0.00217659714578,0,0.5
2014-04-02 07:00:00,0.0529775508342,0,0.5
2014-04-02 07:05:00,0.0103484459668,0,0.5
2014-04-02 07:10:00,0.0521545330655,0,0.5
2014-04-02 07:15:00,0.00320709081091,0,0.5
2014-04-02 07:20:00,0.054197867341,0,0.5
2014-04-02 07:25:00,0.0114714911148,0,0.5
2014-04-02 07:30:00,0.0172975136181,0,0.5
2014-04-02 07:35:00,0.0280575946282,0,0.5
2014-04-02 07:40:00,0.0217567781716,0,0.5
2014-04-02 07:45:00,0.0381521223553,0,0.5
2014-04-02 07:50:00,0.0557177902151,0,0.5
2014-04-02 07:55:00,0.0346592527176,0,0.5
2014-04-02 08:00:00,0.0412366026189,0,0.5
2014-04-02 08:05:00,0.00502367178428,0,0.5
2014-04-02 08:10:00,0.0358817811464,0,0.5
2014-04-02 08:15:00,0.0259371958348,0,0.5
2014-04-02 08:20:00,0.0506286474156,0,0.584694740988
2014-04-02 08:25:00,0.0221849569517,0,0.571428664738
2014-04-02 08:30:00,0.0388338828431,0,0.609727264558
2014-04-02 08:35:00,0.0130352678311,0,0.553138440525
2014-04-02 08:40:00,0.0148198926846,0,0.54083269004
2014-04-02 08:45:00,0.0214939074877,0,0.570851575918
2014-04-02 08:50:00,0.0173746565751,0,0.624116752347
2014-04-02 08:55:00,0.0145058453344,0,0.603171614512
2014-04-02 09:00:00,0.627029155768,0,0.999187714076
2014-04-02 09:05:00,0.780006508781,0,1.0
2014-04-02 09:10:00,0.629873209213,0,0.999
2014-04-02 09:15:00,0.789844914172,0,0.999
2014-04-02 09:20:00,0.641761090175,0,0.999
2014-04-02 09:25:00,0.630059836039,0,0.999
2014-04-02 09:30:00,0.726801768775,0,0.999
2014-04-02 09:35:00,0.715030676888,0,0.999
2014-04-02 09:40:00,0.712852427416,0,0.999
2014-04-02 09:45:00,0.729036837758,0,0.999
2014-04-02 09:50:00,0.673168153269,0,0.999
2014-04-02 09:55:00,0.746227103712,0,0.999
2014-04-02 10:00:00,0.852285042731,0,0.999
2014-04-02 10:05:00,0.815098259292,0,0.999
2014-04-02 10:10:00,0.924170217671,0,0.999
2014-04-02 10:15:00,0.902260866434,0,0.999
2014-04-02 10:20:00,0.828154957472,0,0.999
2014-04-02 10:25:00,0.928854003578,0,0.999
2014-04-02 10:30:00,0.944965689918,0,0.999
2014-04-02 10:35:00,0.859929183255,0,0.999
2014-04-02 10:40:00,0.788528560264,0,0.999
2014-04-02 10:45:00,0.943975108445,0,0.999
2014-04-02 10:50:00,0.782878675606,0,0.999
2014-04-02 10:55:00,0.751592306846,0,0.999
2014-04-02 11:00:00,0.839981277537,0,0.999
2014-04-02 11:05:00,0.930778246863,0,0.999
2014-04-02 11:10:00,0.975396695007,0,0.999
2014-04-02 11:15:00,0.91039487574,0,0.999
2014-04-02 11:20:00,0.981889062003,0,0.999
2014-04-02 11:25:00,0.786542128782,0,0.999
2014-04-02 11:30:00,0.779355930442,0,0.999
2014-04-02 11:35:00,0.902873066627,0,0.999
2014-04-02 11:40:00,0.985134232981,0,0.999
2014-04-02 11:45:00,0.87980997943,0,0.999
2014-04-02 11:50:00,0.777256126878,0,0.999
2014-04-02 11:55:00,0.81582772688,0,0.999
2014-04-02 12:00:00,0.826393615845,0,0.999
2014-04-02 12:05:00,0.847648166968,0,0.999
2014-04-02 12:10:00,0.780444776721,0,0.999
2014-04-02 12:15:00,0.977151064933,0,0.999
2014-04-02 12:20:00,0.888233888162,0,0.999
2014-04-02 12:25:00,0.92371747704,0,0.999
2014-04-02 12:30:00,0.785827706226,0,0.999
2014-04-02 12:35:00,0.782845587955,0,0.999
2014-04-02 12:40:00,0.904427318659,0,0.999
2014-04-02 12:45:00,0.973132230025,0,0.999
2014-04-02 12:50:00,0.891184189348,0,0.999
2014-04-02 12:55:00,0.970967854387,0,0.999
2014-04-02 13:00:00,0.956871144126,0,0.999
2014-04-02 13:05:00,0.788814775252,0,0.999
2014-04-02 13:10:00,0.8176427542,0,0.999
2014-04-02 13:15:00,0.921830376709,0,0.999
2014-04-02 13:20:00,0.872860985936,0,0.999
2014-04-02 13:25:00,0.837929728487,0,0.999
2014-04-02 13:30:00,0.867176136124,0,0.999
2014-04-02 13:35:00,0.873249218123,0,0.999
2014-04-02 13:40:00,0.979631317148,0,0.999
2014-04-02 13:45:00,0.795125311395,0,0.999
2014-04-02 13:50:00,0.835422141029,0,0.999
2014-04-02 13:55:00,0.894364391001,0,0.999
2014-04-02 14:00:00,0.931334545771,0,0.999
2014-04-02 14:05:00,0.915866506088,0,0.999
2014-04-02 14:10:00,0.986977672223,0,0.999
2014-04-02 14:15:00,0.95358714877,0,0.999
2014-04-02 14:20:00,0.899046964222,0,0.999
2014-04-02 14:25:00,0.820758794669,0,0.999
2014-04-02 14:30:00,0.874763815761,0,0.999
2014-04-02 14:35:00,0.930213093754,0,0.999
2014-04-02 14:40:00,0.9632711881,0,0.999
2014-04-02 14:45:00,0.991114734588,0,0.999
2014-04-02 14:50:00,0.910108083548,0,0.999
2014-04-02 14:55:00,0.892151479914,0,0.999
2014-04-02 15:00:00,0.775756668783,0,0.999
2014-04-02 15:05:00,0.788197300259,0,0.999
2014-04-02 15:10:00,0.807405931374,0,0.999
2014-04-02 15:15:00,0.784232566924,0,0.999
2014-04-02 15:20:00,0.863371871536,0,0.999
2014-04-02 15:25:00,0.848741256771,0,0.999
2014-04-02 15:30:00,0.917447422014,0,0.999
2014-04-02 15:35:00,0.894195402974,0,0.999
2014-04-02 15:40:00,0.90798477515,0,0.999
2014-04-02 15:45:00,0.879632651325,0,0.999
2014-04-02 15:50:00,0.835218100833,0,0.999
2014-04-02 15:55:00,0.989582439064,0,0.999
2014-04-02 16:00:00,0.791477471799,0,0.999
2014-04-02 16:05:00,0.986405797065,0,0.999
2014-04-02 16:10:00,0.842886799709,0,0.999
2014-04-02 16:15:00,0.888944233323,0,0.999
2014-04-02 16:20:00,0.796607034334,0,0.999
2014-04-02 16:25:00,0.787938254548,0,0.999
2014-04-02 16:30:00,0.869938946319,0,0.999
2014-04-02 16:35:00,0.941315543043,0,0.999
2014-04-02 16:40:00,0.833312066405,0,0.999
2014-04-02 16:45:00,0.900305525472,0,0.999
2014-04-02 16:50:00,0.835435301359,0,0.999
2014-04-02 16:55:00,0.860579354787,0,0.999
2014-04-02 17:00:00,0.978988901727,0,0.999
2014-04-02 17:05:00,0.967417167758,0,0.999
2014-04-02 17:10:00,0.889713399762,0,0.999
2014-04-02 17:15:00,0.82616601959,0,0.999
2014-04-02 17:20:00,0.815894213595,0,0.999
2014-04-02 17:25:00,0.9898825078,0,0.999
2014-04-02 17:30:00,0.81807395849,0,0.999
2014-04-02 17:35:00,0.956516637852,0,0.999
2014-04-02 17:40:00,0.856089534453,0,0.878252460754
2014-04-02 17:45:00,0.997101879107,0,0.884828602599
2014-04-02 17:50:00,0.855903297811,0,0.878911170644
2014-04-02 17:55:00,0.852098595189,0,0.873176017838
2014-04-02 18:00:00,0.212643450001,0,0.835709379015
2014-04-02 18:05:00,0.242282674884,0,0.798159751641
2014-04-02 18:10:00,0.243626538202,0,0.756779236772
2014-04-02 18:15:00,0.219022385018,0,0.694493012637
2014-04-02 18:20:00,0.223357802325,0,0.642102457746
2014-04-02 18:25:00,0.205869487551,0,0.572068861846
2014-04-02 18:30:00,0.223464757992,0,0.511124253756
2014-04-02 18:35:00,0.232977380185,0,0.562703864349
2014-04-02 18:40:00,0.198798685767,0,0.624580616571
2014-04-02 18:45:00,0.211033557297,0,0.682014951381
2014-04-02 18:50:00,0.203483603125,0,0.682808552562
2014-04-02 18:55:00,0.205784283052,0,0.68596237203
2014-04-02 19:00:00,0.0878471579948,0,0.699268917204
2014-04-02 19:05:00,0.0536302814128,0,0.713111139894
2014-04-02 19:10:00,0.0441909163175,0,0.727756594621
2014-04-02 19:15:00,0.0600752341143,0,0.739393439048
2014-04-02 19:20:00,0.0441845884127,0,0.753343672437
2014-04-02 19:25:00,0.0627719815306,0,0.766208410982
2014-04-02 19:30:00,0.0887089451639,0,0.774327220146
2014-04-02 19:35:00,0.0703930591012,0,0.784463115312
2014-04-02 19:40:00,0.0856309337442,0,0.792749630916
2014-04-02 19:45:00,0.0415023134658,0,0.803980846844
2014-04-02 19:50:00,0.0885402708417,0,0.803934251095
2014-04-02 19:55:00,0.0693913032989,0,0.802872875758
2014-04-02 20:00:00,0.00802579306216,0,0.80530313984
2014-04-02 20:05:00,0.0432275666073,0,0.806429037057
2014-04-02 20:10:00,0.0618586123093,0,0.805247813723
2014-04-02 20:15:00,0.0108008699634,0,0.808708742744
2014-04-02 20:20:00,0.0402619158198,0,0.811900807507
2014-04-02 20:25:00,0.0597560589397,0,0.812597228755
2014-04-02 20:30:00,0.00673419593665,0,0.817712837381
2014-04-02 20:35:00,0.0430984322548,0,0.817610218853
2014-04-02 20:40:00,0.0339660346185,0,0.821098441247
2014-04-02 20:45:00,0.0264783903515,0,0.823811612677
2014-04-02 20:50:00,0.042900785723,0,0.82160863064
2014-04-02 20:55:00,0.00925169323903,0,0.823755034279
2014-04-02 21:00:00,0.0444831393329,0,0.824846375258
2014-04-02 21:05:00,0.00148490978117,0,0.825429735029
2014-04-02 21:10:00,0.0188578318226,0,0.826765365486
2014-04-02 21:15:00,0.0301747187613,0,0.828600520816
2014-04-02 21:20:00,0.0228835623217,0,0.827600198349
2014-04-02 21:25:00,0.0188888601207,0,0.829098394567
2014-04-02 21:30:00,0.0489503260447,0,0.828172084971
2014-04-02 21:35:00,0.0549238813019,0,0.826404818853
2014-04-02 21:40:00,0.0514131883862,0,0.825873718364
2014-04-02 21:45:00,0.0312357790995,0,0.824497329146
2014-04-02 21:50:00,0.0520135162551,0,0.824024282755
2014-04-02 21:55:00,0.0541213942042,0,0.820695231703
2014-04-02 22:00:00,0.0236563949435,0,0.820389784088
2014-04-02 22:05:00,0.0164585537835,0,0.821262004335
2014-04-02 22:10:00,0.00586252831878,0,0.82234066872
2014-04-02 22:15:00,0.027653409234,0,0.821785751854
2014-04-02 22:20:00,0.0543868501851,0,0.821440996522
2014-04-02 22:25:00,0.0323348931687,0,0.822870717262
2014-04-02 22:30:00,0.0384376612318,0,0.823688695698
2014-04-02 22:35:00,0.0066990044259,0,0.825228950778
2014-04-02 22:40:00,0.0084519856037,0,0.827942338851
2014-04-02 22:45:00,0.0268169304715,0,0.829629311138
2014-04-02 22:50:00,0.0546711118855,0,0.827712285358
2014-04-02 22:55:00,0.0208838740749,0,0.827437637767
2014-04-02 23:00:00,0.05021329523,0,0.824669701914
2014-04-02 23:05:00,0.00691986184242,0,0.825967170729
2014-04-02 23:10:00,0.0353208344053,0,0.827154886462
2014-04-02 23:15:00,0.0343829055768,0,0.827027553922
2014-04-02 23:20:00,0.0492064657786,0,0.826357034345
2014-04-02 23:25:00,0.000231873029118,0,0.826759908376
2014-04-02 23:30:00,0.0109017766628,0,0.826607367179
2014-04-02 23:35:00,0.0126031043705,0,0.827491228879
2014-04-02 23:40:00,0.0543575312694,0,0.827510695887
2014-04-02 23:45:00,0.00882983088356,0,0.828257945748
2014-04-02 23:50:00,0.00215559764987,0,0.831216527731
2014-04-02 23:55:00,0.0306006261206,0,0.829762782219
2014-04-03 00:00:00,0.0302079222613,0,0.830077337424
2014-04-03 00:05:00,0.0482428412274,0,0.829223785727
2014-04-03 00:10:00,0.0542344645649,0,0.828913463827
2014-04-03 00:15:00,0.0307788285491,0,0.827020398515
2014-04-03 00:20:00,0.053156018983,0,0.824379898264
2014-04-03 00:25:00,0.0414466122908,0,0.822562856264
2014-04-03 00:30:00,0.0151163846651,0,0.82503201219
2014-04-03 00:35:00,0.0530660713929,0,0.822246981082
2014-04-03 00:40:00,0.0381472751527,0,0.81996049635
2014-04-03 00:45:00,0.0236646649697,0,0.820402555633
2014-04-03 00:50:00,0.038878925507,0,0.81984980776
2014-04-03 00:55:00,0.0229339180149,0,0.821460179802
2014-04-03 01:00:00,0.00652016829986,0,0.824471426707
2014-04-03 01:05:00,0.0410933091228,0,0.823823222539
2014-04-03 01:10:00,0.047101863619,0,0.824203873881
2014-04-03 01:15:00,0.0416550959902,0,0.824190774262
2014-04-03 01:20:00,0.0130901999945,0,0.824318058962
2014-04-03 01:25:00,0.0546789436687,0,0.824216743243
2014-04-03 01:30:00,0.00143652495203,0,0.826513632539
2014-04-03 01:35:00,0.0190108211744,0,0.826803440227
2014-04-03 01:40:00,0.0148610458679,0,0.828294194586
2014-04-03 01:45:00,0.00274398508995,0,0.829540993322
2014-04-03 01:50:00,0.0231864083787,0,0.828512213508
2014-04-03 01:55:00,0.0356132431985,0,0.828850926027
2014-04-03 02:00:00,0.050444033174,0,0.780912363351
2014-04-03 02:05:00,0.0565685177087,0,0.779768548754
2014-04-03 02:10:00,0.0461873355276,0,0.777217902952
2014-04-03 02:15:00,0.0267849960615,0,0.779368675558
2014-04-03 02:20:00,0.0413634528314,0,0.776286419737
2014-04-03 02:25:00,0.048218650302,0,0.774016230708
2014-04-03 02:30:00,0.0265921598923,0,0.773100772582
2014-04-03 02:35:00,0.044870529677,0,0.769796167935
2014-04-03 02:40:00,0.0275837005301,0,0.769449678682
2014-04-03 02:45:00,0.0220869126569,0,0.770514569205
2014-04-03 02:50:00,0.030066860352,0,0.772113591273
2014-04-03 02:55:00,0.0386281225615,0,0.773516191939
2014-04-03 03:00:00,0.0415451022587,0,0.773878331637
2014-04-03 03:05:00,0.0203856963868,0,0.774377002839
2014-04-03 03:10:00,0.0326524024706,0,0.775054818144
2014-04-03 03:15:00,0.0520056688688,0,0.774760288456
2014-04-03 03:20:00,0.0558038312236,0,0.772481067504
2014-04-03 03:25:00,0.012983497034,0,0.774968383311
2014-04-03 03:30:00,0.0110160514512,0,0.776254618592
2014-04-03 03:35:00,0.0386756207691,0,0.774966745723
2014-04-03 03:40:00,0.0236982753421,0,0.775461670203
2014-04-03 03:45:00,0.00137751784735,0,0.778344140802
2014-04-03 03:50:00,0.0198212258257,0,0.780015337032
2014-04-03 03:55:00,0.0461104575021,0,0.778035567541
2014-04-03 04:00:00,0.045577804164,0,0.777037005158
2014-04-03 04:05:00,0.0282715522821,0,0.778868639431
2014-04-03 04:10:00,0.0270077920881,0,0.781079314984
2014-04-03 04:15:00,0.0331204237221,0,0.779534740048
2014-04-03 04:20:00,0.0125346723968,0,0.779418003631
2014-04-03 04:25:00,0.0300641614252,0,0.780079497572
2014-04-03 04:30:00,0.000624312262775,0,0.781846314231
2014-04-03 04:35:00,0.0271782365649,0,0.779870163607
2014-04-03 04:40:00,0.0192032244082,0,0.779917617801
2014-04-03 04:45:00,0.038571807448,0,0.780496012115
2014-04-03 04:50:00,0.0364843669009,0,0.781192532432
2014-04-03 04:55:00,0.0217633520934,0,0.781690252322
2014-04-03 05:00:00,0.000408606852935,0,0.783717653783
2014-04-03 05:05:00,0.0144140834096,0,0.785136907357
2014-04-03 05:10:00,0.036198213823,0,0.783340642308
2014-04-03 05:15:00,0.0041300728786,0,0.78530880525
2014-04-03 05:20:00,0.00614623185815,0,0.784890614272
2014-04-03 05:25:00,0.0369806419572,0,0.784147085974
2014-04-03 05:30:00,0.0431963346958,0,0.782320898364
2014-04-03 05:35:00,0.0183742545493,0,0.783858787289
2014-04-03 05:40:00,0.0279850362433,0,0.784504060495
2014-04-03 05:45:00,0.0540544926549,0,0.782046563
2014-04-03 05:50:00,0.0540449001979,0,0.777929098518
2014-04-03 05:55:00,0.0175712607605,0,0.777685357504
2014-04-03 06:00:00,0.0462958513093,0,0.776904773885
2014-04-03 06:05:00,0.0339456934097,0,0.774590834539
2014-04-03 06:10:00,0.0557564753027,0,0.770710719401
2014-04-03 06:15:00,0.0272956544498,0,0.771471130063
2014-04-03 06:20:00,0.0442790104535,0,0.771386194853
2014-04-03 06:25:00,0.0439034509685,0,0.769378315801
2014-04-03 06:30:00,0.0284286257902,0,0.769343340473
2014-04-03 06:35:00,0.0454750890666,0,0.770019267579
2014-04-03 06:40:00,0.0149152325575,0,0.773087993973
2014-04-03 06:45:00,0.00698144850039,0,0.773914506704
2014-04-03 06:50:00,0.0242973570928,0,0.77562599291
2014-04-03 06:55:00,0.0539355488387,0,0.774071084566
2014-04-03 07:00:00,0.0286179416364,0,0.776180573932
2014-04-03 07:05:00,0.0363074727405,0,0.775481325979
2014-04-03 07:10:00,0.0356731302135,0,0.776149102901
2014-04-03 07:15:00,0.0075713822496,0,0.778955830243
2014-04-03 07:20:00,0.0223041908448,0,0.779426963947
2014-04-03 07:25:00,0.0404050547144,0,0.779816550237
2014-04-03 07:30:00,0.0555567180183,0,0.776682537686