timestamp,value,is_anomaly,anomaly_score,S(t)_reward_low_FP_rate,S(t)_reward_low_FN_rate,S(t)_standard,predicted_anomaly
2014-04-01 00:00:00,0.0,0,0.5,0.0,0.0,0.0,0
2014-04-01 00:05:00,0.0,0,0.5,0.0,0.0,0.0,0
2014-04-01 00:10:00,0.0,0,0.5,0.0,0.0,0.0,0
2014-04-01 00:15:00,0.0,0,0.5,0.0,0.0,0.0,0
2014-04-01 00:20:00,0.0,0,0.5,0.0,0.0,0.0,0
2014-04-01 00:25:00,0.0,0,0.5,0.0,0.0,0.0,0
2014-04-01 00:30:00,0.0,0,0.5,0.0,0.0,0.0,0
2014-04-01 00:35:00,0.0,0,0.5,0.0,0.0,0.0,0
2014-04-01 00:40:00,0.0,0,0.5,0.0,0.0,0.0,0
2014-04-01 00:45:00,0.0,0,0.5,0.0,0.0,0.0,0
2014-04-01 00:50:00,0.0,0,0.5,0.0,0.0,0.0,0
2014-04-01 00:55:00,0.0,0,0.5,0.0,0.0,0.0,0
2014-04-01 01:00:00,0.0,0,0.5,0.0,0.0,0.0,0
2014-04-01 01:05:00,0.0,0,0.5,0.0,0.0,0.0,0
2014-04-01 01:10:00,0.0,0,0.5,0.0,0.0,0.0,0
2014-04-01 01:15:00,0.0,0,0.5,0.0,0.0,0.0,0
2014-04-01 01:20:00,0.0,0,0.5,0.0,0.0,0.0,0
2014-04-01 01:25:00,0.0,0,0.5,0.0,0.0,0.0,0
2014-04-01 01:30:00,0.0,0,0.5,0.0,0.0,0.0,0
2014-04-01 01:35:00,0.0,0,0.5,0.0,0.0,0.0,0
2014-04-01 01:40:00,0.0,0,0.5,0.0,0.0,0.0,0
2014-04-01 01:45:00,0.0,0,0.5,0.0,0.0,0.0,0
2014-04-01 01:50:00,0.0,0,0.5,0.0,0.0,0.0,0
2014-04-01 01:55:00,0.0,0,0.5,0.0,0.0,0.0,0
2014-04-01 02:00:00,0.0,0,0.5,0.0,0.0,0.0,0
2014-04-01 02:05:00,0.0,0,0.5,0.0,0.0,0.0,0
2014-04-01 02:10:00,0.0,0,0.5,0.0,0.0,0.0,0
2014-04-01 02:15:00,0.0,0,0.5,0.0,0.0,0.0,0
2014-04-01 02:20:00,0.0,0,0.5,0.0,0.0,0.0,0
2014-04-01 02:25:00,0.0,0,0.5,0.0,0.0,0.0,0
2014-04-01 02:30:00,0.0,0,0.5,0.0,0.0,0.0,0
2014-04-01 02:35:00,0.0,0,0.5,0.0,0.0,0.0,0
2014-04-01 02:40:00,0.0,0,0.5,0.0,0.0,0.0,0
2014-04-01 02:45:00,0.0,0,0.5,0.0,0.0,0.0,0
2014-04-01 02:50:00,0.0,0,0.5,0.0,0.0,0.0,0
2014-04-01 02:55:00,0.0,0,0.5,0.0,0.0,0.0,0
2014-04-01 03:00:00,0.0,0,0.5,0.0,0.0,0.0,0
2014-04-01 03:05:00,0.0,0,0.5,0.0,0.0,0.0,0
2014-04-01 03:10:00,0.0,0,0.5,0.0,0.0,0.0,0
2014-04-01 03:15:00,0.0,0,0.5,0.0,0.0,0.0,0
2014-04-01 03:20:00,0.0,0,0.5,0.0,0.0,0.0,0
2014-04-01 03:25:00,0.0,0,0.5,0.0,0.0,0.0,0
2014-04-01 03:30:00,0.0,0,0.5,0.0,0.0,0.0,0
2014-04-01 03:35:00,0.0,0,0.5,0.0,0.0,0.0,0
2014-04-01 03:40:00,0.0,0,0.5,0.0,0.0,0.0,0
2014-04-01 03:45:00,0.0,0,0.5,0.0,0.0,0.0,0
2014-04-01 03:50:00,0.0,0,0.5,0.0,0.0,0.0,0
2014-04-01 03:55:00,0.0,0,0.5,0.0,0.0,0.0,0
2014-04-01 04:00:00,0.0,0,0.5,0.0,0.0,0.0,0
2014-04-01 04:05:00,0.0,0,0.5,0.0,0.0,0.0,0
2014-04-01 04:10:00,0.0,0,0.5,0.0,0.0,0.0,0
2014-04-01 04:15:00,0.0,0,0.5,0.0,0.0,0.0,0
2014-04-01 04:20:00,0.0,0,0.5,0.0,0.0,0.0,0
2014-04-01 04:25:00,0.0,0,0.5,0.0,0.0,0.0,0
2014-04-01 04:30:00,0.0,0,0.5,0.0,0.0,0.0,0
2014-04-01 04:35:00,0.0,0,0.5,0.0,0.0,0.0,0
2014-04-01 04:40:00,0.0,0,0.5,0.0,0.0,0.0,0
2014-04-01 04:45:00,0.0,0,0.5,0.0,0.0,0.0,0
2014-04-01 04:50:00,0.0,0,0.5,0.0,0.0,0.0,0
2014-04-01 04:55:00,0.0,0,0.5,0.0,0.0,0.0,0
2014-04-01 05:00:00,0.0,0,0.5,0.0,0.0,0.0,0
2014-04-01 05:05:00,0.0,0,0.5,0.0,0.0,0.0,0
2014-04-01 05:10:00,0.0,0,0.5,0.0,0.0,0.0,0
2014-04-01 05:15:00,0.0,0,0.5,0.0,0.0,0.0,0
2014-04-01 05:20:00,0.0,0,0.5,0.0,0.0,0.0,0
2014-04-01 05:25:00,0.0,0,0.5,0.0,0.0,0.0,0
2014-04-01 05:30:00,0.0,0,0.5,0.0,0.0,0.0,0
2014-04-01 05:35:00,0.0,0,0.5,0.0,0.0,0.0,0
2014-04-01 05:40:00,0.0,0,0.5,0.0,0.0,0.0,0
2014-04-01 05:45:00,0.0454475078259,0,0.5,0.0,0.0,0.0,0
2014-04-01 05:50:00,0.0478366873185,0,0.5,0.0,0.0,0.0,0
2014-04-01 05:55:00,0.0,0,0.5,0.0,0.0,0.0,0
2014-04-01 06:00:00,0.0,0,0.5,0.0,0.0,0.0,0
2014-04-01 06:05:00,0.0,0,0.5,0.0,0.0,0.0,0
2014-04-01 06:10:00,0.0,0,0.5,0.0,0.0,0.0,0
2014-04-01 06:15:00,0.0,0,0.5,0.0,0.0,0.0,0
2014-04-01 06:20:00,0.0,0,0.5,0.0,0.0,0.0,0
2014-04-01 06:25:00,0.0,0,0.5,0.0,0.0,0.0,0
2014-04-01 06:30:00,0.0,0,0.5,0.0,0.0,0.0,0
2014-04-01 06:35:00,0.0,0,0.5,0.0,0.0,0.0,0
2014-04-01 06:40:00,0.0,0,0.5,0.0,0.0,0.0,0
2014-04-01 06:45:00,0.0,0,0.5,0.0,0.0,0.0,0
2014-04-01 06:50:00,0.0,0,0.5,0.0,0.0,0.0,0
2014-04-01 06:55:00,0.0,0,0.5,0.0,0.0,0.0,0
2014-04-01 07:00:00,0.0,0,0.5,0.0,0.0,0.0,0
2014-04-01 07:05:00,0.0,0,0.5,0.0,0.0,0.0,0
2014-04-01 07:10:00,0.0,0,0.5,0.0,0.0,0.0,0
2014-04-01 07:15:00,0.0,0,0.5,0.0,0.0,0.0,0
2014-04-01 07:20:00,0.0,0,0.5,0.0,0.0,0.0,0
2014-04-01 07:25:00,0.0,0,0.5,0.0,0.0,0.0,0
2014-04-01 07:30:00,0.0,0,0.5,0.0,0.0,0.0,0
2014-04-01 07:35:00,0.0,0,0.5,0.0,0.0,0.0,0
2014-04-01 07:40:00,0.0,0,0.5,0.0,0.0,0.0,0
2014-04-01 07:45:00,0.0,0,0.5,0.0,0.0,0.0,0
2014-04-01 07:50:00,0.0,0,0.5,0.0,0.0,0.0,0
2014-04-01 07:55:00,0.0,0,0.5,0.0,0.0,0.0,0
2014-04-01 08:00:00,0.0,0,0.5,0.0,0.0,0.0,0
2014-04-01 08:05:00,0.0,0,0.5,0.0,0.0,0.0,0
2014-04-01 08:10:00,0.077279358554,0,0.5,0.0,0.0,0.0,0
2014-04-01 08:15:00,0.0700271003617,0,0.5,0.0,0.0,0.0,0
2014-04-01 08:20:00,0.0,0,0.5,0.0,0.0,0.0,0
2014-04-01 08:25:00,0.0,0,0.5,0.0,0.0,0.0,0
2014-04-01 08:30:00,0.0,0,0.5,0.0,0.0,0.0,0
2014-04-01 08:35:00,0.0,0,0.5,0.0,0.0,0.0,0
2014-04-01 08:40:00,0.0,0,0.5,0.0,0.0,0.0,0
2014-04-01 08:45:00,0.0,0,0.5,0.0,0.0,0.0,0
2014-04-01 08:50:00,0.0,0,0.5,0.0,0.0,0.0,0
2014-04-01 08:55:00,0.0,0,0.5,0.0,0.0,0.0,0
2014-04-01 09:00:00,0.0,0,0.5,0.0,0.0,0.0,0
2014-04-01 09:05:00,0.0,0,0.5,0.0,0.0,0.0,0
2014-04-01 09:10:00,0.0,0,0.5,0.0,0.0,0.0,0
2014-04-01 09:15:00,0.0,0,0.5,0.0,0.0,0.0,0
2014-04-01 09:20:00,0.0,0,0.5,0.0,0.0,0.0,0
2014-04-01 09:25:00,0.0,0,0.5,0.0,0.0,0.0,0
2014-04-01 09:30:00,0.0,0,0.5,0.0,0.0,0.0,0
2014-04-01 09:35:00,0.0,0,0.5,0.0,0.0,0.0,0
2014-04-01 09:40:00,0.0,0,0.5,0.0,0.0,0.0,0
2014-04-01 09:45:00,0.0,0,0.5,0.0,0.0,0.0,0
2014-04-01 09:50:00,0.0,0,0.5,0.0,0.0,0.0,0
2014-04-01 09:55:00,0.0,0,0.5,0.0,0.0,0.0,0
2014-04-01 10:00:00,0.0,0,0.5,0.0,0.0,0.0,0
2014-04-01 10:05:00,0.0,0,0.5,0.0,0.0,0.0,0
2014-04-01 10:10:00,0.0,0,0.5,0.0,0.0,0.0,0
2014-04-01 10:15:00,0.0,0,0.5,0.0,0.0,0.0,0
2014-04-01 10:20:00,0.0,0,0.5,0.0,0.0,0.0,0
2014-04-01 10:25:00,0.0,0,0.5,0.0,0.0,0.0,0
2014-04-01 10:30:00,0.0,0,0.5,0.0,0.0,0.0,0
2014-04-01 10:35:00,0.0,0,0.5,0.0,0.0,0.0,0
2014-04-01 10:40:00,0.0,0,0.5,0.0,0.0,0.0,0
2014-04-01 10:45:00,0.0,0,0.5,0.0,0.0,0.0,0
2014-04-01 10:50:00,0.0,0,0.5,0.0,0.0,0.0,0
2014-04-01 10:55:00,0.0,0,0.5,0.0,0.0,0.0,0
2014-04-01 11:00:00,0.0,0,0.5,0.0,0.0,0.0,0
2014-04-01 11:05:00,0.0,0,0.5,0.0,0.0,0.0,0
2014-04-01 11:10:00,0.0,0,0.5,0.0,0.0,0.0,0
2014-04-01 11:15:00,0.0,0,0.5,0.0,0.0,0.0,0
2014-04-01 11:20:00,0.0,0,0.5,0.0,0.0,0.0,0
2014-04-01 11:25:00,0.0,0,0.5,0.0,0.0,0.0,0
2014-04-01 11:30:00,0.0,0,0.5,0.0,0.0,0.0,0
2014-04-01 11:35:00,0.0,0,0.5,0.0,0.0,0.0,0
2014-04-01 11:40:00,0.0,0,0.5,0.0,0.0,0.0,0
2014-04-01 11:45:00,0.0,0,0.5,0.0,0.0,0.0,0
2014-04-01 11:50:00,0.0,0,0.5,0.0,0.0,0.0,0
2014-04-01 11:55:00,0.0,0,0.5,0.0,0.0,0.0,0
2014-04-01 12:00:00,0.0,0,0.5,0.0,0.0,0.0,0
2014-04-01 12:05:00,0.0,0,0.5,0.0,0.0,0.0,0
2014-04-01 12:10:00,0.0,0,0.5,0.0,0.0,0.0,0
2014-04-01 12:15:00,0.0,0,0.5,0.0,0.0,0.0,0
2014-04-01 12:20:00,0.0,0,0.5,0.0,0.0,0.0,0
2014-04-01 12:25:00,0.0,0,0.5,0.0,0.0,0.0,0
2014-04-01 12:30:00,0.0,0,0.5,0.0,0.0,0.0,0
2014-04-01 12:35:00,0.0,0,0.5,0.0,0.0,0.0,0
2014-04-01 12:40:00,0.0,0,0.5,0.0,0.0,0.0,0
2014-04-01 12:45:00,0.0,0,0.5,0.0,0.0,0.0,0
2014-04-01 12:50:00,0.03989504141,0,0.5,0.0,0.0,0.0,0
2014-04-01 12:55:00,0.0493309940318,0,0.5,0.0,0.0,0.0,0
2014-04-01 13:00:00,0.0,0,0.5,0.0,0.0,0.0,0
2014-04-01 13:05:00,0.0,0,0.5,0.0,0.0,0.0,0
2014-04-01 13:10:00,0.0,0,0.5,0.0,0.0,0.0,0
2014-04-01 13:15:00,0.0,0,0.5,0.0,0.0,0.0,0
2014-04-01 13:20:00,0.0,0,0.5,0.0,0.0,0.0,0
2014-04-01 13:25:00,0.0,0,0.5,0.0,0.0,0.0,0
2014-04-01 13:30:00,0.0,0,0.5,0.0,0.0,0.0,0
2014-04-01 13:35:00,0.0,0,0.5,0.0,0.0,0.0,0
2014-04-01 13:40:00,0.0,0,0.5,0.0,0.0,0.0,0
2014-04-01 13:45:00,0.0,0,0.5,0.0,0.0,0.0,0
2014-04-01 13:50:00,0.0,0,0.5,0.0,0.0,0.0,0
2014-04-01 13:55:00,0.0,0,0.5,0.0,0.0,0.0,0
2014-04-01 14:00:00,0.0,0,0.5,0.0,0.0,0.0,0
2014-04-01 14:05:00,0.0,0,0.5,0.0,0.0,0.0,0
2014-04-01 14:10:00,0.0,0,0.5,0.0,0.0,0.0,0
2014-04-01 14:15:00,0.0,0,0.5,0.0,0.0,0.0,0
2014-04-01 14:20:00,0.0,0,0.5,0.0,0.0,0.0,0
2014-04-01 14:25:00,0.0,0,0.5,0.0,0.0,0.0,0
2014-04-01 14:30:00,0.0,0,0.5,0.0,0.0,0.0,0
2014-04-01 14:35:00,0.0,0,0.5,0.0,0.0,0.0,0
2014-04-01 14:40:00,0.0,0,0.5,0.0,0.0,0.0,0
2014-04-01 14:45:00,0.0,0,0.5,0.0,0.0,0.0,0
2014-04-01 14:50:00,0.0,0,0.5,0.0,0.0,0.0,0
2014-04-01 14:55:00,0.0,0,0.5,0.0,0.0,0.0,0
2014-04-01 15:00:00,0.822259124347,0,0.5,0.0,0.0,0.0,0
2014-04-01 15:05:00,0.390019198598,0,0.5,0.0,0.0,0.0,0
2014-04-01 15:10:00,0.0,0,0.5,0.0,0.0,0.0,0
2014-04-01 15:15:00,0.0762566475548,0,0.5,0.0,0.0,0.0,0
2014-04-01 15:20:00,0.0924094138436,0,0.5,0.0,0.0,0.0,0
2014-04-01 15:25:00,0.0,0,0.5,0.0,0.0,0.0,0
2014-04-01 15:30:00,0.0,0,0.5,0.0,0.0,0.0,0
2014-04-01 15:35:00,0.0,0,0.5,0.0,0.0,0.0,0
2014-04-01 15:40:00,0.0,0,0.5,0.0,0.0,0.0,0
2014-04-01 15:45:00,0.0,0,0.5,0.0,0.0,0.0,0
2014-04-01 15:50:00,0.0,0,0.5,0.0,0.0,0.0,0
2014-04-01 15:55:00,0.0,0,0.5,0.0,0.0,0.0,0
2014-04-01 16:00:00,0.0,0,0.5,0.0,0.0,0.0,0
2014-04-01 16:05:00,0.0,0,0.5,0.0,0.0,0.0,0
2014-04-01 16:10:00,0.0,0,0.5,0.0,0.0,0.0,0
2014-04-01 16:15:00,0.0,0,0.5,0.0,0.0,0.0,0
2014-04-01 16:20:00,0.0,0,0.5,0.0,0.0,0.0,0
2014-04-01 16:25:00,0.0,0,0.5,0.0,0.0,0.0,0
2014-04-01 16:30:00,0.0,0,0.5,0.0,0.0,0.0,0
2014-04-01 16:35:00,0.0,0,0.5,0.0,0.0,0.0,0
2014-04-01 16:40:00,0.0,0,0.5,0.0,0.0,0.0,0
2014-04-01 16:45:00,0.0,0,0.5,0.0,0.0,0.0,0
2014-04-01 16:50:00,0.0,0,0.5,0.0,0.0,0.0,0
2014-04-01 16:55:00,0.0,0,0.5,0.0,0.0,0.0,0
2014-04-01 17:00:00,0.0,0,0.5,0.0,0.0,0.0,0
2014-04-01 17:05:00,0.0,0,0.5,0.0,0.0,0.0,0
2014-04-01 17:10:00,0.0,0,0.5,0.0,0.0,0.0,0
2014-04-01 17:15:00,0.0,0,0.5,0.0,0.0,0.0,0
2014-04-01 17:20:00,0.0,0,0.5,0.0,0.0,0.0,0
2014-04-01 17:25:00,0.0,0,0.5,0.0,0.0,0.0,0
2014-04-01 17:30:00,0.0,0,0.5,0.0,0.0,0.0,0
2014-04-01 17:35:00,0.0,0,0.5,0.0,0.0,0.0,0
2014-04-01 17:40:00,0.0,0,0.5,0.0,0.0,0.0,0
2014-04-01 17:45:00,0.0,0,0.5,0.0,0.0,0.0,0
2014-04-01 17:50:00,0.517932887435,0,0.5,0.0,0.0,0.0,0
2014-04-01 17:55:00,0.771212167534,0,0.5,0.0,0.0,0.0,0
2014-04-01 18:00:00,0.0,0,0.5,0.0,0.0,0.0,0
2014-04-01 18:05:00,0.0,0,0.5,0.0,0.0,0.0,0
2014-04-01 18:10:00,0.0,0,0.5,0.0,0.0,0.0,0
2014-04-01 18:15:00,0.0,0,0.5,0.0,0.0,0.0,0
2014-04-01 18:20:00,0.0,0,0.5,0.0,0.0,0.0,0
2014-04-01 18:25:00,0.0,0,0.5,0.0,0.0,0.0,0
2014-04-01 18:30:00,0.0,0,0.5,0.0,0.0,0.0,0
2014-04-01 18:35:00,0.0,0,0.5,0.0,0.0,0.0,0
2014-04-01 18:40:00,0.0,0,0.5,0.0,0.0,0.0,0
2014-04-01 18:45:00,0.0,0,0.5,0.0,0.0,0.0,0
2014-04-01 18:50:00,0.0,0,0.5,0.0,0.0,0.0,0
2014-04-01 18:55:00,0.0,0,0.5,0.0,0.0,0.0,0
2014-04-01 19:00:00,0.0,0,0.5,0.0,0.0,0.0,0
2014-04-01 19:05:00,0.0,0,0.5,0.0,0.0,0.0,0
2014-04-01 19:10:00,0.409797095492,0,0.5,0.0,0.0,0.0,0
2014-04-01 19:15:00,0.817390797564,0,0.5,0.0,0.0,0.0,0
2014-04-01 19:20:00,0.0,0,0.5,0.0,0.0,0.0,0
2014-04-01 19:25:00,0.0,0,0.5,0.0,0.0,0.0,0
2014-04-01 19:30:00,0.0,0,0.5,0.0,0.0,0.0,0
2014-04-01 19:35:00,0.0,0,0.5,0.0,0.0,0.0,0
2014-04-01 19:40:00,0.0,0,0.5,0.0,0.0,0.0,0
2014-04-01 19:45:00,0.0,0,0.5,0.0,0.0,0.0,0
2014-04-01 19:50:00,0.0,0,0.5,0.0,0.0,0.0,0
2014-04-01 19:55:00,0.0772949191679,0,0.5,0.0,0.0,0.0,0
2014-04-01 20:00:00,0.0816605265912,0,0.5,0.0,0.0,0.0,0
2014-04-01 20:05:00,0.0694658660153,0,0.5,0.0,0.0,0.0,0
2014-04-01 20:10:00,0.0,0,0.5,0.0,0.0,0.0,0
2014-04-01 20:15:00,0.0,0,0.5,0.0,0.0,0.0,0
2014-04-01 20:20:00,0.0,0,0.5,0.0,0.0,0.0,0
2014-04-01 20:25:00,0.0,0,0.5,0.0,0.0,0.0,0
2014-04-01 20:30:00,0.0,0,0.5,0.0,0.0,0.0,0
2014-04-01 20:35:00,0.0,0,0.5,0.0,0.0,0.0,0
2014-04-01 20:40:00,0.0,0,0.5,0.0,0.0,0.0,0
2014-04-01 20:45:00,0.0,0,0.5,0.0,0.0,0.0,0
2014-04-01 20:50:00,0.0,0,0.5,0.0,0.0,0.0,0
2014-04-01 20:55:00,0.0,0,0.5,0.0,0.0,0.0,0
2014-04-01 21:00:00,0.0,0,0.5,0.0,0.0,0.0,0
2014-04-01 21:05:00,0.0,0,0.5,0.0,0.0,0.0,0
2014-04-01 21:10:00,0.0,0,0.5,0.0,0.0,0.0,0
2014-04-01 21:15:00,0.0,0,0.5,0.0,0.0,0.0,0
2014-04-01 21:20:00,0.0,0,0.5,0.0,0.0,0.0,0
2014-04-01 21:25:00,0.0,0,0.5,0.0,0.0,0.0,0
2014-04-01 21:30:00,0.0,0,0.5,0.0,0.0,0.0,0
2014-04-01 21:35:00,0.0,0,0.5,0.0,0.0,0.0,0
2014-04-01 21:40:00,0.0,0,0.5,0.0,0.0,0.0,0
2014-04-01 21:45:00,0.164924172403,0,0.5,0.0,0.0,0.0,0
2014-04-01 21:50:00,0.150545585881,0,0.5,0.0,0.0,0.0,0
2014-04-01 21:55:00,0.0,0,0.5,0.0,0.0,0.0,0
2014-04-01 22:00:00,0.0,0,0.5,0.0,0.0,0.0,0
2014-04-01 22:05:00,0.0,0,0.5,0.0,0.0,0.0,0
2014-04-01 22:10:00,0.0,0,0.5,0.0,0.0,0.0,0
2014-04-01 22:15:00,0.0,0,0.5,0.0,0.0,0.0,0
2014-04-01 22:20:00,0.0,0,0.5,0.0,0.0,0.0,0
2014-04-01 22:25:00,0.0,0,0.5,0.0,0.0,0.0,0
2014-04-01 22:30:00,0.0,0,0.5,0.0,0.0,0.0,0
2014-04-01 22:35:00,0.0,0,0.5,0.0,0.0,0.0,0
2014-04-01 22:40:00,0.0,0,0.5,0.0,0.0,0.0,0
2014-04-01 22:45:00,0.0,0,0.5,0.0,0.0,0.0,0
2014-04-01 22:50:00,0.0,0,0.5,0.0,0.0,0.0,0
2014-04-01 22:55:00,0.0,0,0.5,0.0,0.0,0.0,0
2014-04-01 23:00:00,0.0,0,0.5,0.0,0.0,0.0,0
2014-04-01 23:05:00,0.0,0,0.5,0.0,0.0,0.0,0
2014-04-01 23:10:00,0.0,0,0.5,0.0,0.0,0.0,0
2014-04-01 23:15:00,0.0,0,0.5,0.0,0.0,0.0,0
2014-04-01 23:20:00,0.0,0,0.5,0.0,0.0,0.0,0
2014-04-01 23:25:00,0.0,0,0.5,0.0,0.0,0.0,0
2014-04-01 23:30:00,0.0,0,0.5,0.0,0.0,0.0,0
2014-04-01 23:35:00,0.0,0,0.5,0.0,0.0,0.0,0
2014-04-01 23:40:00,0.0,0,0.5,0.0,0.0,0.0,0
2014-04-01 23:45:00,0.0,0,0.5,0.0,0.0,0.0,0
2014-04-01 23:50:00,0.0,0,0.5,0.0,0.0,0.0,0
2014-04-01 23:55:00,0.0,0,0.5,0.0,0.0,0.0,0
2014-04-02 00:00:00,0.0,0,0.5,0.0,0.0,0.0,0
2014-04-02 00:05:00,0.0,0,0.5,0.0,0.0,0.0,0
2014-04-02 00:10:00,0.0,0,0.5,0.0,0.0,0.0,0
2014-04-02 00:15:00,0.0,0,0.5,0.0,0.0,0.0,0
2014-04-02 00:20:00,0.0,0,0.5,0.0,0.0,0.0,0
2014-04-02 00:25:00,0.0579538678703,0,0.5,0.0,0.0,0.0,0
2014-04-02 00:30:00,0.0487038723385,0,0.5,0.0,0.0,0.0,0
2014-04-02 00:35:00,0.0,0,0.5,0.0,0.0,0.0,0
2014-04-02 00:40:00,0.0,0,0.5,0.0,0.0,0.0,0
2014-04-02 00:45:00,0.0,0,0.5,0.0,0.0,0.0,0
2014-04-02 00:50:00,0.0,0,0.5,0.0,0.0,0.0,0
2014-04-02 00:55:00,0.0,0,0.5,0.0,0.0,0.0,0
2014-04-02 01:00:00,0.0,0,0.5,0.0,0.0,0.0,0
2014-04-02 01:05:00,0.0,0,0.5,0.0,0.0,0.0,0
2014-04-02 01:10:00,0.0,0,0.5,0.0,0.0,0.0,0
2014-04-02 01:15:00,0.0,0,0.5,0.0,0.0,0.0,0
2014-04-02 01:20:00,0.0,0,0.5,0.0,0.0,0.0,0
2014-04-02 01:25:00,0.0,0,0.5,0.0,0.0,0.0,0
2014-04-02 01:30:00,0.0,0,0.5,0.0,0.0,0.0,0
2014-04-02 01:35:00,0.0,0,0.5,0.0,0.0,0.0,0
2014-04-02 01:40:00,0.0,0,0.5,0.0,0.0,0.0,0
2014-04-02 01:45:00,0.0,0,0.5,0.0,0.0,0.0,0
2014-04-02 01:50:00,0.0,0,0.5,0.0,0.0,0.0,0
2014-04-02 01:55:00,0.0,0,0.5,0.0,0.0,0.0,0
2014-04-02 02:00:00,0.0,0,0.5,0.0,0.0,0.0,0
2014-04-02 02:05:00,0.0,0,0.5,0.0,0.0,0.0,0
2014-04-02 02:10:00,0.0,0,0.5,0.0,0.0,0.0,0
2014-04-02 02:15:00,0.0,0,0.5,0.0,0.0,0.0,0
2014-04-02 02:20:00,0.0,0,0.5,0.0,0.0,0.0,0
2014-04-02 02:25:00,0.0,0,0.5,0.0,0.0,0.0,0
2014-04-02 02:30:00,0.0,0,0.5,0.0,0.0,0.0,0
2014-04-02 02:35:00,0.0,0,0.5,0.0,0.0,0.0,0
2014-04-02 02:40:00,0.0,0,0.5,0.0,0.0,0.0,0
2014-04-02 02:45:00,0.0,0,0.5,0.0,0.0,0.0,0
2014-04-02 02:50:00,0.0,0,0.5,0.0,0.0,0.0,0
2014-04-02 02:55:00,0.0,0,0.5,0.0,0.0,0.0,0
2014-04-02 03:00:00,0.0,0,0.5,0.0,0.0,0.0,0
2014-04-02 03:05:00,0.0,0,0.5,0.0,0.0,0.0,0
2014-04-02 03:10:00,0.0,0,0.5,0.0,0.0,0.0,0
2014-04-02 03:15:00,0.0,0,0.5,0.0,0.0,0.0,0
2014-04-02 03:20:00,0.0,0,0.5,0.0,0.0,0.0,0
2014-04-02 03:25:00,0.0,0,0.5,0.0,0.0,0.0,0
2014-04-02 03:30:00,0.0,0,0.5,0.0,0.0,0.0,0
2014-04-02 03:35:00,0.0319518199383,0,0.5,0.0,0.0,0.0,0
2014-04-02 03:40:00,0.0598778143086,0,0.5,0.0,0.0,0.0,0
2014-04-02 03:45:00,0.0,0,0.5,0.0,0.0,0.0,0
2014-04-02 03:50:00,0.0,0,0.5,0.0,0.0,0.0,0
2014-04-02 03:55:00,0.0,0,0.5,0.0,0.0,0.0,0
2014-04-02 04:00:00,0.0,0,0.5,0.0,0.0,0.0,0
2014-04-02 04:05:00,0.0,0,0.5,0.0,0.0,0.0,0
2014-04-02 04:10:00,0.0,0,0.5,0.0,0.0,0.0,0
2014-04-02 04:15:00,0.0,0,0.5,0.0,0.0,0.0,0
2014-04-02 04:20:00,0.0,0,0.5,0.0,0.0,0.0,0
2014-04-02 04:25:00,0.0,0,0.5,0.0,0.0,0.0,0
2014-04-02 04:30:00,0.0,0,0.5,0.0,0.0,0.0,0
2014-04-02 04:35:00,0.0,0,0.5,0.0,0.0,0.0,0
2014-04-02 04:40:00,0.0,0,0.5,0.0,0.0,0.0,0
2014-04-02 04:45:00,0.0,0,0.5,0.0,0.0,0.0,0
2014-04-02 04:50:00,0.0,0,0.5,0.0,0.0,0.0,0
2014-04-02 04:55:00,0.0,0,0.5,0.0,0.0,0.0,0
2014-04-02 05:00:00,0.0,0,0.5,0.0,0.0,0.0,0
2014-04-02 05:05:00,0.0,0,0.5,0.0,0.0,0.0,0
2014-04-02 05:10:00,0.0523914329134,0,0.5,0.0,0.0,0.0,0
2014-04-02 05:15:00,0.0519878945622,0,0.5,0.0,0.0,0.0,0
2014-04-02 05:20:00,0.0,0,0.5,0.0,0.0,0.0,0
2014-04-02 05:25:00,0.0,0,0.5,0.0,0.0,0.0,0
2014-04-02 05:30:00,0.0,0,0.5,0.0,0.0,0.0,0
2014-04-02 05:35:00,0.0,0,0.5,0.0,0.0,0.0,0
2014-04-02 05:40:00,0.0,0,0.5,0.0,0.0,0.0,0
2014-04-02 05:45:00,0.0,0,0.5,0.0,0.0,0.0,0
2014-04-02 05:50:00,0.0,0,0.5,0.0,0.0,0.0,0
2014-04-02 05:55:00,0.0,0,0.5,0.0,0.0,0.0,0
2014-04-02 06:00:00,0.0,0,0.5,0.0,0.0,0.0,0
2014-04-02 06:05:00,0.0,0,0.5,0.0,0.0,0.0,0
2014-04-02 06:10:00,0.0,0,0.5,0.0,0.0,0.0,0
2014-04-02 06:15:00,0.0,0,0.5,0.0,0.0,0.0,0
2014-04-02 06:20:00,0.0,0,0.5,0.0,0.0,0.0,0
2014-04-02 06:25:00,0.0,0,0.5,0.0,0.0,0.0,0
2014-04-02 06:30:00,0.0,0,0.5,0.0,0.0,0.0,0
2014-04-02 06:35:00,0.0,0,0.5,0.0,0.0,0.0,0
2014-04-02 06:40:00,0.0,0,0.5,0.0,0.0,0.0,0
2014-04-02 06:45:00,0.0,0,0.5,0.0,0.0,0.0,0
2014-04-02 06:50:00,0.0,0,0.5,0.0,0.0,0.0,0
2014-04-02 06:55:00,0.0,0,0.5,0.0,0.0,0.0,0
2014-04-02 07:00:00,0.0,0,0.5,0.0,0.0,0.0,0
2014-04-02 07:05:00,0.0,0,0.5,0.0,0.0,0.0,0
2014-04-02 07:10:00,0.0,0,0.5,0.0,0.0,0.0,0
2014-04-02 07:15:00,0.0,0,0.5,0.0,0.0,0.0,0
2014-04-02 07:20:00,0.0,0,0.5,0.0,0.0,0.0,0
2014-04-02 07:25:00,0.0,0,0.5,0.0,0.0,0.0,0
2014-04-02 07:30:00,0.0,0,0.5,0.0,0.0,0.0,0
2014-04-02 07:35:00,0.0,0,0.5,0.0,0.0,0.0,0
2014-04-02 07:40:00,0.0,0,0.5,0.0,0.0,0.0,0
2014-04-02 07:45:00,0.0,0,0.5,0.0,0.0,0.0,0
2014-04-02 07:50:00,0.0,0,0.5,0.0,0.0,0.0,0
2014-04-02 07:55:00,0.0,0,0.5,0.0,0.0,0.0,0
2014-04-02 08:00:00,0.0,0,0.5,0.0,0.0,0.0,0
2014-04-02 08:05:00,0.0,0,0.5,0.0,0.0,0.0,0
2014-04-02 08:10:00,0.0,0,0.5,0.0,0.0,0.0,0
2014-04-02 08:15:00,0.0,0,0.5,0.0,0.0,0.0,0
2014-04-02 08:20:00,0.0,0,0.958369220258,0.0,0.0,0.0,0
2014-04-02 08:25:00,0.0,0,0.958369220258,0.0,0.0,0.0,0
2014-04-02 08:30:00,0.0,0,0.958369220258,0.0,0.0,0.0,0
2014-04-02 08:35:00,0.0,0,0.958369220258,0.0,0.0,0.0,0
2014-04-02 08:40:00,0.0,0,0.958369220258,0.0,0.0,0.0,0
2014-04-02 08:45:00,0.0,0,0.958369220258,0.0,0.0,0.0,0
2014-04-02 08:50:00,0.0,0,0.958369220258,0.0,0.0,0.0,0
2014-04-02 08:55:00,0.0,0,0.958369220258,0.0,0.0,0.0,0
2014-04-02 09:00:00,0.0,0,0.958369220258,0.0,0.0,0.0,0
2014-04-02 09:05:00,0.0,0,0.958369220258,0.0,0.0,0.0,0
2014-04-02 09:10:00,0.0,0,0.958369220258,0.0,0.0,0.0,0
2014-04-02 09:15:00,0.0376975168537,0,0.935040149645,0.0,0.0,0.0,0
2014-04-02 09:20:00,0.0514412611467,0,0.888277677758,0.0,0.0,0.0,0
2014-04-02 09:25:00,0.0,0,0.888277677758,0.0,0.0,0.0,0
2014-04-02 09:30:00,0.0,0,0.888277677758,0.0,0.0,0.0,0
2014-04-02 09:35:00,0.0,0,0.888277677758,0.0,0.0,0.0,0
2014-04-02 09:40:00,0.0,0,0.888277677758,0.0,0.0,0.0,0
2014-04-02 09:45:00,0.0,0,0.888277677758,0.0,0.0,0.0,0
2014-04-02 09:50:00,0.0,0,0.888277677758,0.0,0.0,0.0,0
2014-04-02 09:55:00,0.0,0,0.888277677758,0.0,0.0,0.0,0
2014-04-02 10:00:00,0.0,0,0.888277677758,0.0,0.0,0.0,0
2014-04-02 10:05:00,0.0,0,0.924366183592,0.0,0.0,0.0,0
2014-04-02 10:10:00,0.0,0,0.958369220258,0.0,0.0,0.0,0
2014-04-02 10:15:00,0.0,0,0.958369220258,0.0,0.0,0.0,0
2014-04-02 10:20:00,0.0,0,0.958369220258,0.0,0.0,0.0,0
2014-04-02 10:25:00,0.18384689309,0,0.748767631604,0.0,0.0,0.0,0
2014-04-02 10:30:00,0.192587610932,0,0.670501741949,0.0,0.0,0.0,0
2014-04-02 10:35:00,0.0,0,0.670501741949,0.0,0.0,0.0,0
2014-04-02 10:40:00,0.0,0,0.670501741949,0.0,0.0,0.0,0
2014-04-02 10:45:00,0.0,0,0.670501741949,0.0,0.0,0.0,0
2014-04-02 10:50:00,0.0,0,0.670501741949,0.0,0.0,0.0,0
2014-04-02 10:55:00,0.0,0,0.670501741949,0.0,0.0,0.0,0
2014-04-02 11:00:00,0.0,0,0.670501741949,0.0,0.0,0.0,0
2014-04-02 11:05:00,0.0,0,0.670501741949,0.0,0.0,0.0,0
2014-04-02 11:10:00,0.0,0,0.670501741949,0.0,0.0,0.0,0
2014-04-02 11:15:00,0.0,0,0.732421029774,0.0,0.0,0.0,0
2014-04-02 11:20:00,0.0,0,0.958369220258,0.0,0.0,0.0,0
2014-04-02 11:25:00,0.0,0,0.958369220258,0.0,0.0,0.0,0
2014-04-02 11:30:00,0.0,0,0.958369220258,0.0,0.0,0.0,0
2014-04-02 11:35:00,0.0,0,0.958369220258,0.0,0.0,0.0,0
2014-04-02 11:40:00,0.0,0,0.958369220258,0.0,0.0,0.0,0
2014-04-02 11:45:00,0.0,0,0.958369220258,0.0,0.0,0.0,0
2014-04-02 11:50:00,0.0,0,0.958369220258,0.0,0.0,0.0,0
2014-04-02 11:55:00,0.0,0,0.958369220258,0.0,0.0,0.0,0
2014-04-02 12:00:00,0.0,0,0.958369220258,0.0,0.0,0.0,0
2014-04-02 12:05:00,0.0,0,0.958369220258,0.0,0.0,0.0,0
2014-04-02 12:10:00,0.0,0,0.958369220258,0.0,0.0,0.0,0
2014-04-02 12:15:00,0.0,0,0.958369220258,0.0,0.0,0.0,0
2014-04-02 12:20:00,0.103309775959,0,0.871938503966,0.0,0.0,0.0,0
2014-04-02 12:25:00,0.151679907192,0,0.602517849188,0.0,0.0,0.0,0
2014-04-02 12:30:00,0.092280450784,0,0.607541438113,0.0,0.0,0.0,0
2014-04-02 12:35:00,0.0868743531708,0,0.780679751313,0.0,0.0,0.0,0
2014-04-02 12:40:00,0.0,0,0.780679751313,0.0,0.0,0.0,0
2014-04-02 12:45:00,0.0,0,0.780679751313,0.0,0.0,0.0,0
2014-04-02 12:50:00,0.0,0,0.780679751313,0.0,0.0,0.0,0
2014-04-02 12:55:00,0.0,0,0.780679751313,0.0,0.0,0.0,0
2014-04-02 13:00:00,0.0,0,0.780679751313,0.0,0.0,0.0,0
2014-04-02 13:05:00,0.0,0,0.780679751313,0.0,0.0,0.0,0
2014-04-02 13:10:00,0.0,0,0.57064871965,0.0,0.0,0.0,0
2014-04-02 13:15:00,0.0,0,0.757319698801,0.0,0.0,0.0,0
2014-04-02 13:20:00,0.0,0,0.89074378207,0.0,0.0,0.0,0
2014-04-02 13:25:00,0.0,0,0.958369220258,0.0,0.0,0.0,0
2014-04-02 13:30:00,0.0,0,0.958369220258,0.0,0.0,0.0,0
2014-04-02 13:35:00,0.0,0,0.958369220258,0.0,0.0,0.0,0
2014-04-02 13:40:00,0.0,0,0.958369220258,0.0,0.0,0.0,0
2014-04-02 13:45:00,0.0,0,0.958369220258,0.0,0.0,0.0,0
2014-04-02 13:50:00,0.0,0,0.958369220258,0.0,0.0,0.0,0
2014-04-02 13:55:00,0.0432230821289,0,0.930898534268,0.0,0.0,0.0,0
2014-04-02 14:00:00,0.0512039609244,0,0.882363981531,0.0,0.0,0.0,0
2014-04-02 14:05:00,0.0,0,0.882363981531,0.0,0.0,0.0,0
2014-04-02 14:10:00,0.0,0,0.882363981531,0.0,0.0,0.0,0
2014-04-02 14:15:00,0.0,0,0.882363981531,0.0,0.0,0.0,0
2014-04-02 14:20:00,0.091775085008,0,0.74441552829,0.0,0.0,0.0,0
2014-04-02 14:25:00,0.0771471882096,0,0.583792337552,0.0,0.0,0.0,0
2014-04-02 14:30:00,0.0,0,0.583792337552,0.0,0.0,0.0,0
2014-04-02 14:35:00,0.0,0,0.583792337552,0.0,0.0,0.0,0
2014-04-02 14:40:00,0.0,0,0.583792337552,0.0,0.0,0.0,0
2014-04-02 14:45:00,0.0,0,0.677656593665,0.0,0.0,0.0,0
2014-04-02 14:50:00,0.0,0,0.77541061944,0.0,0.0,0.0,0
2014-04-02 14:55:00,0.0,0,0.77541061944,0.0,0.0,0.0,0
2014-04-02 15:00:00,0.0,0,0.77541061944,0.0,0.0,0.0,0
2014-04-02 15:05:00,0.0,0,0.77541061944,0.0,0.0,0.0,0
2014-04-02 15:10:00,0.0343149313613,0,0.861820370426,0.0,0.0,0.0,0
2014-04-02 15:15:00,0.0514090061174,0,0.891981569506,0.0,0.0,0.0,0
2014-04-02 15:20:00,0.0,0,0.891981569506,0.0,0.0,0.0,0
2014-04-02 15:25:00,0.0,0,0.891981569506,0.0,0.0,0.0,0
2014-04-02 15:30:00,0.0,0,0.891981569506,0.0,0.0,0.0,0
2014-04-02 15:35:00,0.359822207828,0,0.799635258183,0.0,0.0,0.0,0
2014-04-02 15:40:00,0.53012114507,0,0.999952102781,0.0,0.0,0.0,0
2014-04-02 15:45:00,0.0,0,0.999952102781,0.0,0.0,0.0,0
2014-04-02 15:50:00,0.145743270358,0,0.999998944316,0.0,0.0,0.0,1
2014-04-02 15:55:00,0.134520732762,0,0.999,0.0,0.0,0.0,0
2014-04-02 16:00:00,0.0,0,0.999,0.0,0.0,0.0,0
2014-04-02 16:05:00,0.0,0,0.999,0.0,0.0,0.0,0
2014-04-02 16:10:00,0.0,0,0.999,0.0,0.0,0.0,0
2014-04-02 16:15:00,0.0,0,0.999,0.0,0.0,0.0,0
2014-04-02 16:20:00,0.0,0,0.999,0.0,0.0,0.0,0
2014-04-02 16:25:00,0.0,0,0.998394275602,0.0,0.0,0.0,0
2014-04-02 16:30:00,0.065421931005,0,0.604021575187,0.0,0.0,0.0,0
2014-04-02 16:35:00,0.0790110298964,0,0.764220619865,0.0,0.0,0.0,0
2014-04-02 16:40:00,0.0,0,0.548357273098,0.0,0.0,0.0,0
2014-04-02 16:45:00,0.0,0,0.815453958952,0.0,0.0,0.0,0
2014-04-02 16:50:00,0.0,0,0.815453958952,0.0,0.0,0.0,0
2014-04-02 16:55:00,0.0,0,0.815453958952,0.0,0.0,0.0,0
2014-04-02 17:00:00,0.0,0,0.815453958952,0.0,0.0,0.0,0
2014-04-02 17:05:00,0.0,0,0.815453958952,0.0,0.0,0.0,0
2014-04-02 17:10:00,0.0,0,0.815453958952,0.0,0.0,0.0,0
2014-04-02 17:15:00,0.0,0,0.815453958952,0.0,0.0,0.0,0
2014-04-02 17:20:00,0.0,0,0.899003265121,0.0,0.0,0.0,0
2014-04-02 17:25:00,0.0,0,0.958369220258,0.0,0.0,0.0,0
2014-04-02 17:30:00,0.0,0,0.958369220258,0.0,0.0,0.0,0
2014-04-02 17:35:00,0.0,0,0.958369220258,0.0,0.0,0.0,0
2014-04-02 17:40:00,0.0,0,0.885803572105,0.0,0.0,0.0,0
2014-04-02 17:45:00,0.0,0,0.885803572105,0.0,0.0,0.0,0
2014-04-02 17:50:00,0.0,0,0.885803572105,0.0,0.0,0.0,0
2014-04-02 17:55:00,0.0,0,0.885803572105,0.0,0.0,0.0,0
2014-04-02 18:00:00,0.0,0,0.885803572105,0.0,0.0,0.0,0
2014-04-02 18:05:00,0.0,0,0.885803572105,0.0,0.0,0.0,0
2014-04-02 18:10:00,0.0,0,0.885803572105,0.0,0.0,0.0,0
2014-04-02 18:15:00,0.0,0,0.885803572105,0.0,0.0,0.0,0
2014-04-02 18:20:00,0.0,0,0.885803572105,0.0,0.0,0.0,0
2014-04-02 18:25:00,0.0,0,0.885803572105,0.0,0.0,0.0,0
2014-04-02 18:30:00,0.0,0,0.885803572105,0.0,0.0,0.0,0
2014-04-02 18:35:00,0.0,0,0.885803572105,0.0,0.0,0.0,0
2014-04-02 18:40:00,0.0,0,0.885803572105,0.0,0.0,0.0,0
2014-04-02 18:45:00,0.0,0,0.885803572105,0.0,0.0,0.0,0
2014-04-02 18:50:00,0.0,0,0.885803572105,0.0,0.0,0.0,0
2014-04-02 18:55:00,0.0,0,0.885803572105,0.0,0.0,0.0,0
2014-04-02 19:00:00,0.0,0,0.885803572105,0.0,0.0,0.0,0
2014-04-02 19:05:00,0.0,0,0.885803572105,0.0,0.0,0.0,0
2014-04-02 19:10:00,0.0,0,0.885803572105,0.0,0.0,0.0,0
2014-04-02 19:15:00,0.0,0,0.885803572105,0.0,0.0,0.0,0
2014-04-02 19:20:00,0.0,0,0.885803572105,0.0,0.0,0.0,0
2014-04-02 19:25:00,0.0,0,0.885803572105,0.0,0.0,0.0,0
2014-04-02 19:30:00,0.0,0,0.885803572105,0.0,0.0,0.0,0
2014-04-02 19:35:00,0.0,0,0.885803572105,0.0,0.0,0.0,0
2014-04-02 19:40:00,0.0,0,0.885803572105,0.0,0.0,0.0,0
2014-04-02 19:45:00,0.0,0,0.885803572105,0.0,0.0,0.0,0
2014-04-02 19:50:00,0.0,0,0.885803572105,0.0,0.0,0.0,0
2014-04-02 19:55:00,0.0,0,0.885803572105,0.0,0.0,0.0,0
2014-04-02 20:00:00,0.0,0,0.885803572105,0.0,0.0,0.0,0
2014-04-02 20:05:00,0.0,0,0.885803572105,0.0,0.0,0.0,0
2014-04-02 20:10:00,0.0,0,0.885803572105,0.0,0.0,0.0,0
2014-04-02 20:15:00,0.0,0,0.885803572105,0.0,0.0,0.0,0
2014-04-02 20:20:00,0.0,0,0.885803572105,0.0,0.0,0.0,0
2014-04-02 20:25:00,0.0,0,0.885803572105,0.0,0.0,0.0,0
2014-04-02 20:30:00,0.0,0,0.885803572105,0.0,0.0,0.0,0
2014-04-02 20:35:00,0.0,0,0.885803572105,0.0,0.0,0.0,0
2014-04-02 20:40:00,0.0,0,0.885803572105,0.0,0.0,0.0,0
2014-04-02 20:45:00,0.0761090911492,0,0.815654709939,0.0,0.0,0.0,0
2014-04-02 20:50:00,0.088202180408,0,0.707052525639,0.0,0.0,0.0,0
2014-04-02 20:55:00,0.0,0,0.707052525639,0.0,0.0,0.0,0
2014-04-02 21:00:00,0.0,0,0.707052525639,0.0,0.0,0.0,0
2014-04-02 21:05:00,0.0,0,0.707052525639,0.0,0.0,0.0,0
2014-04-02 21:10:00,0.0,0,0.707052525639,0.0,0.0,0.0,0
2014-04-02 21:15:00,0.0,0,0.707052525639,0.0,0.0,0.0,0
2014-04-02 21:20:00,0.0,0,0.707052525639,0.0,0.0,0.0,0
2014-04-02 21:25:00,0.0,0,0.707052525639,0.0,0.0,0.0,0
2014-04-02 21:30:00,0.956145658607,0,0.999506417745,0.0,0.0,0.0,0
2014-04-02 21:35:00,0.757242368873,0,0.999999999175,0.0,0.0,0.0,1
2014-04-02 21:40:00,0.0,0,0.999,0.0,0.0,0.0,0
2014-04-02 21:45:00,0.0650605577711,0,0.999,0.0,0.0,0.0,0
2014-04-02 21:50:00,0.0771591917822,0,0.999,0.0,0.0,0.0,0
2014-04-02 21:55:00,0.0,0,0.999,0.0,0.0,0.0,0
2014-04-02 22:00:00,0.0,0,0.999,0.0,0.0,0.0,0
2014-04-02 22:05:00,0.0,0,0.999,0.0,0.0,0.0,0
2014-04-02 22:10:00,0.0,0,0.999,0.0,0.0,0.0,0
2014-04-02 22:15:00,0.0,0,0.999,0.0,0.0,0.0,0
2014-04-02 22:20:00,0.0,0,0.991954801817,0.0,0.0,0.0,0
2014-04-02 22:25:00,0.0,0,0.736793963695,0.0,0.0,0.0,0
2014-04-02 22:30:00,0.0,0,0.736793963695,0.0,0.0,0.0,0
2014-04-02 22:35:00,0.0,0,0.814529636236,0.0,0.0,0.0,0
2014-04-02 22:40:00,0.0,0,0.885803572105,0.0,0.0,0.0,0
2014-04-02 22:45:00,0.0,0,0.885803572105,0.0,0.0,0.0,0
2014-04-02 22:50:00,0.0,0,0.885803572105,0.0,0.0,0.0,0
2014-04-02 22:55:00,0.0,0,0.885803572105,0.0,0.0,0.0,0
2014-04-02 23:00:00,0.0,0,0.885803572105,0.0,0.0,0.0,0
2014-04-02 23:05:00,0.0,0,0.885803572105,0.0,0.0,0.0,0
2014-04-02 23:10:00,0.0,0,0.885803572105,0.0,0.0,0.0,0
2014-04-02 23:15:00,0.0,0,0.885803572105,0.0,0.0,0.0,0
2014-04-02 23:20:00,0.0,0,0.885803572105,0.0,0.0,0.0,0
2014-04-02 23:25:00,0.0,0,0.885803572105,0.0,0.0,0.0,0
2014-04-02 23:30:00,0.0,0,0.885803572105,0.0,0.0,0.0,0
2014-04-02 23:35:00,0.0,0,0.885803572105,0.0,0.0,0.0,0
2014-04-02 23:40:00,0.0,0,0.885803572105,0.0,0.0,0.0,0
2014-04-02 23:45:00,0.0,0,0.885803572105,0.0,0.0,0.0,0
2014-04-02 23:50:00,0.0,0,0.885803572105,0.0,0.0,0.0,0
2014-04-02 23:55:00,0.0,0,0.885803572105,0.0,0.0,0.0,0
2014-04-03 00:00:00,0.0,0,0.885803572105,0.0,0.0,0.0,0
2014-04-03 00:05:00,0.0,0,0.885803572105,0.0,0.0,0.0,0
2014-04-03 00:10:00,0.0,0,0.885803572105,0.0,0.0,0.0,0
2014-04-03 00:15:00,0.0,0,0.885803572105,0.0,0.0,0.0,0
2014-04-03 00:20:00,0.0,0,0.885803572105,0.0,0.0,0.0,0
2014-04-03 00:25:00,0.0,0,0.885803572105,0.0,0.0,0.0,0
2014-04-03 00:30:00,0.0,0,0.885803572105,0.0,0.0,0.0,0
2014-04-03 00:35:00,0.0,0,0.885803572105,0.0,0.0,0.0,0
2014-04-03 00:40:00,0.0,0,0.885803572105,0.0,0.0,0.0,0
2014-04-03 00:45:00,0.0,0,0.885803572105,0.0,0.0,0.0,0
2014-04-03 00:50:00,0.0,0,0.885803572105,0.0,0.0,0.0,0
2014-04-03 00:55:00,0.0,0,0.885803572105,0.0,0.0,0.0,0
2014-04-03 01:00:00,0.0,0,0.885803572105,0.0,0.0,0.0,0
2014-04-03 01:05:00,0.0,0,0.885803572105,0.0,0.0,0.0,0
2014-04-03 01:10:00,0.0,0,0.885803572105,0.0,0.0,0.0,0
2014-04-03 01:15:00,0.0,0,0.885803572105,0.0,0.0,0.0,0
2014-04-03 01:20:00,0.0,0,0.885803572105,0.0,0.0,0.0,0
2014-04-03 01:25:00,0.0,0,0.885803572105,0.0,0.0,0.0,0
2014-04-03 01:30:00,0.0,0,0.885803572105,0.0,0.0,0.0,0
2014-04-03 01:35:00,0.0,0,0.885803572105,0.0,0.0,0.0,0
2014-04-03 01:40:00,0.0,0,0.885803572105,0.0,0.0,0.0,0
2014-04-03 01:45:00,0.0,0,0.885803572105,0.0,0.0,0.0,0
2014-04-03 01:50:00,0.0,0,0.885803572105,0.0,0.0,0.0,0
2014-04-03 01:55:00,0.0,0,0.885803572105,0.0,0.0,0.0,0
2014-04-03 02:00:00,0.0,0,0.794034104908,0.0,0.0,0.0,0
2014-04-03 02:05:00,0.0,0,0.794034104908,0.0,0.0,0.0,0
2014-04-03 02:10:00,0.0,0,0.794034104908,0.0,0.0,0.0,0
2014-04-03 02:15:00,0.0,0,0.794034104908,0.0,0.0,0.0,0
2014-04-03 02:20:00,0.0,0,0.794034104908,0.0,0.0,0.0,0
2014-04-03 02:25:00,0.0,0,0.794034104908,0.0,0.0,0.0,0
2014-04-03 02:30:00,0.0,0,0.794034104908,0.0,0.0,0.0,0
2014-04-03 02:35:00,0.0,0,0.794034104908,0.0,0.0,0.0,0
2014-04-03 02:40:00,0.0,0,0.794034104908,0.0,0.0,0.0,0
2014-04-03 02:45:00,0.0,0,0.794034104908,0.0,0.0,0.0,0
2014-04-03 02:50:00,0.0,0,0.794034104908,0.0,0.0,0.0,0
2014-04-03 02:55:00,0.0,0,0.794034104908,0.0,0.0,0.0,0