timestamp,value,is_anomaly,anomaly_score
2014-04-01 00:00:00,0.00864342399704,0,0.5
2014-04-01 00:05:00,0.0154906904453,0,0.5
2014-04-01 00:10:00,0.0352097142315,0,0.5
2014-04-01 00:15:00,0.0166166880051,0,0.5
2014-04-01 00:20:00,0.00704844858627,0,0.5
2014-04-01 00:25:00,0.0263220540754,0,0.5
2014-04-01 00:30:00,0.0037227446439,0,0.5
2014-04-01 00:35:00,0.0277721600921,0,0.5
2014-04-01 00:40:00,0.0335848714316,0,0.5
2014-04-01 00:45:00,0.0305485545866,0,0.5
2014-04-01 00:50:00,0.00591846406386,0,0.5
2014-04-01 00:55:00,0.02118612058,0,0.5
2014-04-01 01:00:00,0.00737566115739,0,0.5
2014-04-01 01:05:00,0.0170417004871,0,0.5
2014-04-01 01:10:00,0.0188851073854,0,0.5
2014-04-01 01:15:00,0.00701306212471,0,0.5
2014-04-01 01:20:00,0.0209612441301,0,0.5
2014-04-01 01:25:00,0.0071906011389,0,0.5
2014-04-01 01:30:00,0.0327049273737,0,0.5
2014-04-01 01:35:00,0.0132192017408,0,0.5
2014-04-01 01:40:00,0.0108082171398,0,0.5
2014-04-01 01:45:00,0.00365960105094,0,0.5
2014-04-01 01:50:00,0.0282063834078,0,0.5
2014-04-01 01:55:00,0.014386599741,0,0.5
2014-04-01 02:00:00,0.0206058710359,0,0.5
2014-04-01 02:05:00,0.0224424015074,0,0.5
2014-04-01 02:10:00,0.0324847910408,0,0.5
2014-04-01 02:15:00,0.0314836818392,0,0.5
2014-04-01 02:20:00,0.00591898816899,0,0.5
2014-04-01 02:25:00,0.0090924076134,0,0.5
2014-04-01 02:30:00,0.0224580630738,0,0.5
2014-04-01 02:35:00,0.00622826795872,0,0.5
2014-04-01 02:40:00,0.0334286995889,0,0.5
2014-04-01 02:45:00,0.0136388888605,0,0.5
2014-04-01 02:50:00,0.00478445185292,0,0.5
2014-04-01 02:55:00,0.00585075177701,0,0.5
2014-04-01 03:00:00,0.0228057756685,0,0.5
2014-04-01 03:05:00,0.00925682001626,0,0.5
2014-04-01 03:10:00,0.020816441021,0,0.5
2014-04-01 03:15:00,0.00580440886885,0,0.5
2014-04-01 03:20:00,0.0170588384688,0,0.5
2014-04-01 03:25:00,0.00854297108962,0,0.5
2014-04-01 03:30:00,0.0335085344258,0,0.5
2014-04-01 03:35:00,0.0149029430686,0,0.5
2014-04-01 03:40:00,0.0163486625634,0,0.5
2014-04-01 03:45:00,0.0141771784416,0,0.5
2014-04-01 03:50:00,0.0110608773605,0,0.5
2014-04-01 03:55:00,0.00296800160048,0,0.5
2014-04-01 04:00:00,0.00778540197679,0,0.5
2014-04-01 04:05:00,0.0283768471878,0,0.5
2014-04-01 04:10:00,0.00632249784398,0,0.5
2014-04-01 04:15:00,0.031925805136,0,0.5
2014-04-01 04:20:00,0.0137325737788,0,0.5
2014-04-01 04:25:00,0.00425414501055,0,0.5
2014-04-01 04:30:00,0.0326881976092,0,0.5
2014-04-01 04:35:00,0.0054568374728,0,0.5
2014-04-01 04:40:00,0.0073147221171,0,0.5
2014-04-01 04:45:00,0.0180405488714,0,0.5
2014-04-01 04:50:00,0.0251297778902,0,0.5
2014-04-01 04:55:00,0.0216178412051,0,0.5
2014-04-01 05:00:00,0.00112913358082,0,0.5
2014-04-01 05:05:00,0.0290294809602,0,0.5
2014-04-01 05:10:00,0.0152820611164,0,0.5
2014-04-01 05:15:00,0.0333386804007,0,0.5
2014-04-01 05:20:00,0.0284403238214,0,0.5
2014-04-01 05:25:00,0.00859901696595,0,0.5
2014-04-01 05:30:00,0.0253589057894,0,0.5
2014-04-01 05:35:00,0.000506784351043,0,0.5
2014-04-01 05:40:00,0.0181481686524,0,0.5
2014-04-01 05:45:00,0.0175762264344,0,0.5
2014-04-01 05:50:00,0.0350457458935,0,0.5
2014-04-01 05:55:00,0.00157044685833,0,0.5
2014-04-01 06:00:00,0.0300285653683,0,0.5
2014-04-01 06:05:00,0.0167831438169,0,0.5
2014-04-01 06:10:00,0.0219730202646,0,0.5
2014-04-01 06:15:00,0.0212487347348,0,0.5
2014-04-01 06:20:00,0.0129649444668,0,0.5
2014-04-01 06:25:00,0.0122814595529,0,0.5
2014-04-01 06:30:00,0.0307541144895,0,0.5
2014-04-01 06:35:00,0.018192927547,0,0.5
2014-04-01 06:40:00,0.00761095700642,0,0.5
2014-04-01 06:45:00,0.0202410045023,0,0.5
2014-04-01 06:50:00,0.0303351928518,0,0.5
2014-04-01 06:55:00,0.024972649723,0,0.5
2014-04-01 07:00:00,0.0286408928887,0,0.5
2014-04-01 07:05:00,0.0317898325051,0,0.5
2014-04-01 07:10:00,0.022631221561,0,0.5
2014-04-01 07:15:00,0.0166887199542,0,0.5
2014-04-01 07:20:00,0.0337202553631,0,0.5
2014-04-01 07:25:00,0.0144010238297,0,0.5
2014-04-01 07:30:00,0.000242740750045,0,0.5
2014-04-01 07:35:00,0.00129404160954,0,0.5
2014-04-01 07:40:00,0.00620328001819,0,0.5
2014-04-01 07:45:00,0.0266778898426,0,0.5
2014-04-01 07:50:00,0.0355516573144,0,0.5
2014-04-01 07:55:00,0.00604437370267,0,0.5
2014-04-01 08:00:00,0.0343398165401,0,0.5
2014-04-01 08:05:00,0.0288864970509,0,0.5
2014-04-01 08:10:00,0.0165607802007,0,0.5
2014-04-01 08:15:00,0.0298777939535,0,0.5
2014-04-01 08:20:00,0.00603540190032,0,0.5
2014-04-01 08:25:00,0.00809542771083,0,0.5
2014-04-01 08:30:00,0.00887355602937,0,0.5
2014-04-01 08:35:00,0.00667786007583,0,0.5
2014-04-01 08:40:00,0.028374526689,0,0.5
2014-04-01 08:45:00,0.00985128718231,0,0.5
2014-04-01 08:50:00,0.0234424331091,0,0.5
2014-04-01 08:55:00,0.0121084436812,0,0.5
2014-04-01 09:00:00,0.70448405369,0,0.5
2014-04-01 09:05:00,0.768170490155,0,0.5
2014-04-01 09:10:00,0.797256858373,0,0.5
2014-04-01 09:15:00,0.695925660977,0,0.5
2014-04-01 09:20:00,0.701407273602,0,0.5
2014-04-01 09:25:00,0.704660308411,0,0.5
2014-04-01 09:30:00,0.738156321065,0,0.5
2014-04-01 09:35:00,0.72290124362,0,0.5
2014-04-01 09:40:00,0.779229371054,0,0.5
2014-04-01 09:45:00,0.742873431981,0,0.5
2014-04-01 09:50:00,0.744046627696,0,0.5
2014-04-01 09:55:00,0.769420233999,0,0.5
2014-04-01 10:00:00,0.872164554471,0,0.5
2014-04-01 10:05:00,0.870953370028,0,0.5
2014-04-01 10:10:00,0.926761761374,0,0.5
2014-04-01 10:15:00,0.929957128719,0,0.5
2014-04-01 10:20:00,0.824117948877,0,0.5
2014-04-01 10:25:00,0.842004499442,0,0.5
2014-04-01 10:30:00,0.851585297467,0,0.5
2014-04-01 10:35:00,0.870731255881,0,0.5
2014-04-01 10:40:00,0.862416049773,0,0.5
2014-04-01 10:45:00,0.914540850631,0,0.5
2014-04-01 10:50:00,0.936605364907,0,0.5
2014-04-01 10:55:00,0.848680800038,0,0.5
2014-04-01 11:00:00,0.929420279739,0,0.5
2014-04-01 11:05:00,0.901305735944,0,0.5
2014-04-01 11:10:00,0.921179954061,0,0.5
2014-04-01 11:15:00,0.937743523497,0,0.5
2014-04-01 11:20:00,0.97704808374,0,0.5
2014-04-01 11:25:00,0.876020487206,0,0.5
2014-04-01 11:30:00,0.860853381501,0,0.5
2014-04-01 11:35:00,0.938673272913,0,0.5
2014-04-01 11:40:00,0.905096515142,0,0.5
2014-04-01 11:45:00,0.871786681112,0,0.5
2014-04-01 11:50:00,0.865186673591,0,0.5
2014-04-01 11:55:00,0.928833931844,0,0.5
2014-04-01 12:00:00,0.897192360713,0,0.5
2014-04-01 12:05:00,0.998404435552,0,0.5
2014-04-01 12:10:00,0.912502961517,0,0.5
2014-04-01 12:15:00,0.884386262596,0,0.5
2014-04-01 12:20:00,0.944879552683,0,0.5
2014-04-01 12:25:00,0.889028703495,0,0.5
2014-04-01 12:30:00,0.925309239436,0,0.5
2014-04-01 12:35:00,0.923637775067,0,0.5
2014-04-01 12:40:00,0.91942369417,0,0.5
2014-04-01 12:45:00,0.969165696532,0,0.5
2014-04-01 12:50:00,0.88501454231,0,0.5
2014-04-01 12:55:00,0.984881662745,0,0.5
2014-04-01 13:00:00,0.969708517815,0,0.5
2014-04-01 13:05:00,0.903059295858,0,0.5
2014-04-01 13:10:00,0.880874818637,0,0.5
2014-04-01 13:15:00,0.895264854311,0,0.5
2014-04-01 13:20:00,0.902988588614,0,0.5
2014-04-01 13:25:00,0.935613258089,0,0.5
2014-04-01 13:30:00,0.861350025986,0,0.5
2014-04-01 13:35:00,0.987601951214,0,0.5
2014-04-01 13:40:00,0.868958192822,0,0.5
2014-04-01 13:45:00,0.895226799372,0,0.5
2014-04-01 13:50:00,0.870501825048,0,0.5
2014-04-01 13:55:00,0.89193947808,0,0.5
2014-04-01 14:00:00,0.976696380762,0,0.5
2014-04-01 14:05:00,0.944323008588,0,0.5
2014-04-01 14:10:00,0.887890610468,0,0.5
2014-04-01 14:15:00,0.981655692778,0,0.5
2014-04-01 14:20:00,0.971318459369,0,0.5
2014-04-01 14:25:00,0.964470843918,0,0.5
2014-04-01 14:30:00,0.978145393835,0,0.5
2014-04-01 14:35:00,0.944973954925,0,0.5
2014-04-01 14:40:00,0.927774108864,0,0.5
2014-04-01 14:45:00,0.909222569619,0,0.5
2014-04-01 14:50:00,0.887372747593,0,0.5
2014-04-01 14:55:00,0.935918347033,0,0.5
2014-04-01 15:00:00,0.984286146821,0,0.5
2014-04-01 15:05:00,0.941286725525,0,0.5
2014-04-01 15:10:00,0.988668077454,0,0.5
2014-04-01 15:15:00,0.906791738419,0,0.5
2014-04-01 15:20:00,0.956005852316,0,0.5
2014-04-01 15:25:00,0.949243689126,0,0.5
2014-04-01 15:30:00,0.952411181319,0,0.5
2014-04-01 15:35:00,0.948716443351,0,0.5
2014-04-01 15:40:00,0.887109810106,0,0.5
2014-04-01 15:45:00,0.875750834449,0,0.5
2014-04-01 15:50:00,0.997256216694,0,0.5
2014-04-01 15:55:00,0.861447923417,0,0.5
2014-04-01 16:00:00,0.922926160891,0,0.5
2014-04-01 16:05:00,0.916719228327,0,0.5
2014-04-01 16:10:00,0.907252099222,0,0.5
2014-04-01 16:15:00,0.968652540407,0,0.5
2014-04-01 16:20:00,0.96332196174,0,0.5
2014-04-01 16:25:00,0.986585444661,0,0.5
2014-04-01 16:30:00,0.912413158223,0,0.5
2014-04-01 16:35:00,0.936959663028,0,0.5
2014-04-01 16:40:00,0.984705754418,0,0.5
2014-04-01 16:45:00,0.999481066818,0,0.5
2014-04-01 16:50:00,0.9959082387,0,0.5
2014-04-01 16:55:00,0.959319481532,0,0.5
2014-04-01 17:00:00,0.875708343028,0,0.5
2014-04-01 17:05:00,0.858240959282,0,0.5
2014-04-01 17:10:00,0.97494561034,0,0.5
2014-04-01 17:15:00,0.97723357941,0,0.5
2014-04-01 17:20:00,0.963470972153,0,0.5
2014-04-01 17:25:00,0.895599125124,0,0.5
2014-04-01 17:30:00,0.947967770317,0,0.5
2014-04-01 17:35:00,0.900884811321,0,0.5
2014-04-01 17:40:00,0.92044148178,0,0.5
2014-04-01 17:45:00,0.910515706069,0,0.5
2014-04-01 17:50:00,0.987811958262,0,0.5
2014-04-01 17:55:00,0.888939639113,0,0.5
2014-04-01 18:00:00,0.200066853745,0,0.5
2014-04-01 18:05:00,0.20006685778,0,0.5
2014-04-01 18:10:00,0.200066852153,0,0.5
2014-04-01 18:15:00,0.200066853988,0,0.5
2014-04-01 18:20:00,0.200066847294,0,0.5
2014-04-01 18:25:00,0.200066862611,0,0.5
2014-04-01 18:30:00,0.200066860394,0,0.5
2014-04-01 18:35:00,0.20006685023,0,0.5
2014-04-01 18:40:00,0.200066857634,0,0.5
2014-04-01 18:45:00,0.200066861415,0,0.5
2014-04-01 18:50:00,0.200066855129,0,0.5
2014-04-01 18:55:00,0.200066852357,0,0.5
2014-04-01 19:00:00,0.0678022518355,0,0.5
2014-04-01 19:05:00,0.0606199562293,0,0.5
2014-04-01 19:10:00,0.0455507908026,0,0.5
2014-04-01 19:15:00,0.0539665212547,0,0.5
2014-04-01 19:20:00,0.0680771953411,0,0.5
2014-04-01 19:25:00,0.0609014007436,0,0.5
2014-04-01 19:30:00,0.0505063771913,0,0.5
2014-04-01 19:35:00,0.0633050005043,0,0.5
2014-04-01 19:40:00,0.0450278562465,0,0.5
2014-04-01 19:45:00,0.0494169270455,0,0.5
2014-04-01 19:50:00,0.0553886175589,0,0.5
2014-04-01 19:55:00,0.0424600953582,0,0.5
2014-04-01 20:00:00,0.0292320586565,0,0.5
2014-04-01 20:05:00,0.034705401208,0,0.5
2014-04-01 20:10:00,0.0198168212143,0,0.5
2014-04-01 20:15:00,0.0228937836375,0,0.5
2014-04-01 20:20:00,0.0312070375564,0,0.5
2014-04-01 20:25:00,0.0309131050524,0,0.5
2014-04-01 20:30:00,0.0290082202957,0,0.5
2014-04-01 20:35:00,0.0327474545659,0,0.5
2014-04-01 20:40:00,0.0181112519509,0,0.5
2014-04-01 20:45:00,0.0201676053268,0,0.5
2014-04-01 20:50:00,0.0275216537243,0,0.5
2014-04-01 20:55:00,0.0290206399552,0,0.5
2014-04-01 21:00:00,0.0245028689945,0,0.5
2014-04-01 21:05:00,0.0274469356348,0,0.5
2014-04-01 21:10:00,0.0345838797646,0,0.5
2014-04-01 21:15:00,0.0279977512441,0,0.5
2014-04-01 21:20:00,0.0260852718353,0,0.5
2014-04-01 21:25:00,0.0179122399268,0,0.5
2014-04-01 21:30:00,0.00975285441025,0,0.5
2014-04-01 21:35:00,0.0233967773141,0,0.5
2014-04-01 21:40:00,0.00358315392589,0,0.5
2014-04-01 21:45:00,0.00781999350041,0,0.5
2014-04-01 21:50:00,0.00213806054601,0,0.5
2014-04-01 21:55:00,0.00605704279027,0,0.5
2014-04-01 22:00:00,0.0142294726279,0,0.5
2014-04-01 22:05:00,0.0148921842027,0,0.5
2014-04-01 22:10:00,0.0319243787211,0,0.5
2014-04-01 22:15:00,0.0103914599145,0,0.5
2014-04-01 22:20:00,0.014829439547,0,0.5
2014-04-01 22:25:00,0.0182171419643,0,0.5
2014-04-01 22:30:00,0.0114488099821,0,0.5
2014-04-01 22:35:00,0.0205010735946,0,0.5
2014-04-01 22:40:00,0.0176023396725,0,0.5
2014-04-01 22:45:00,0.0221607175789,0,0.5
2014-04-01 22:50:00,0.0105740878107,0,0.5
2014-04-01 22:55:00,0.00479055078673,0,0.5
2014-04-01 23:00:00,0.00584087015922,0,0.5
2014-04-01 23:05:00,0.00783445152418,0,0.5
2014-04-01 23:10:00,0.0359177746408,0,0.5
2014-04-01 23:15:00,0.00325758014789,0,0.5
2014-04-01 23:20:00,0.0264230033053,0,0.5
2014-04-01 23:25:00,0.00412696876638,0,0.5
2014-04-01 23:30:00,0.0292562050182,0,0.5
2014-04-01 23:35:00,0.0204309482602,0,0.5
2014-04-01 23:40:00,0.00916641626099,0,0.5
2014-04-01 23:45:00,0.0131346873068,0,0.5
2014-04-01 23:50:00,0.0212936925051,0,0.5
2014-04-01 23:55:00,0.0117402297151,0,0.5
2014-04-02 00:00:00,0.0163972148434,0,0.5
2014-04-02 00:05:00,0.0263361132528,0,0.5
2014-04-02 00:10:00,0.0128547459092,0,0.5
2014-04-02 00:15:00,0.0289367346312,0,0.5
2014-04-02 00:20:00,0.0111210216575,0,0.5
2014-04-02 00:25:00,0.036253629715,0,0.5
2014-04-02 00:30:00,0.0164036535814,0,0.5
2014-04-02 00:35:00,0.021776834087,0,0.5
2014-04-02 00:40:00,0.0253405446911,0,0.5
2014-04-02 00:45:00,0.0176064694217,0,0.5
2014-04-02 00:50:00,0.0128917717177,0,0.5
2014-04-02 00:55:00,0.00125084898984,0,0.5
2014-04-02 01:00:00,0.00606173366631,0,0.5
2014-04-02 01:05:00,0.0102784533818,0,0.5
2014-04-02 01:10:00,0.0189430286143,0,0.5
2014-04-02 01:15:00,0.0221014517743,0,0.5
2014-04-02 01:20:00,0.035183438993,0,0.5
2014-04-02 01:25:00,0.0233036371908,0,0.5
2014-04-02 01:30:00,0.00550469301584,0,0.5
2014-04-02 01:35:00,0.0223968227861,0,0.5
2014-04-02 01:40:00,0.019575344555,0,0.5
2014-04-02 01:45:00,0.0264780552025,0,0.5
2014-04-02 01:50:00,0.0263944468124,0,0.5
2014-04-02 01:55:00,0.0341160373805,0,0.5
2014-04-02 02:00:00,0.0140379531396,0,0.5
2014-04-02 02:05:00,0.0200670123584,0,0.5
2014-04-02 02:10:00,0.0143232686122,0,0.5
2014-04-02 02:15:00,0.016472248082,0,0.5
2014-04-02 02:20:00,0.00730657883213,0,0.5
2014-04-02 02:25:00,0.00904662686611,0,0.5
2014-04-02 02:30:00,0.00830299379548,0,0.5
2014-04-02 02:35:00,0.018205574154,0,0.5
2014-04-02 02:40:00,0.0234933675473,0,0.5
2014-04-02 02:45:00,0.00241041631141,0,0.5
2014-04-02 02:50:00,0.0343925810369,0,0.5
2014-04-02 02:55:00,0.0308147674692,0,0.5
2014-04-02 03:00:00,0.0211026999604,0,0.5
2014-04-02 03:05:00,0.0140323608896,0,0.5
2014-04-02 03:10:00,0.0360684849462,0,0.5
2014-04-02 03:15:00,0.0101994067174,0,0.5
2014-04-02 03:20:00,0.0160415477891,0,0.5
2014-04-02 03:25:00,0.0187343710534,0,0.5
2014-04-02 03:30:00,0.0209609739476,0,0.5
2014-04-02 03:35:00,0.0174689953249,0,0.5
2014-04-02 03:40:00,0.0304813856851,0,0.5
2014-04-02 03:45:00,0.0324121014773,0,0.5
2014-04-02 03:50:00,0.0258304190338,0,0.5
2014-04-02 03:55:00,0.0105565650646,0,0.5
2014-04-02 04:00:00,0.0149661708981,0,0.5
2014-04-02 04:05:00,0.01890097201,0,0.5
2014-04-02 04:10:00,0.0155761146775,0,0.5
2014-04-02 04:15:00,0.0160222140646,0,0.5
2014-04-02 04:20:00,0.025197283351,0,0.5
2014-04-02 04:25:00,0.0328215625577,0,0.5
2014-04-02 04:30:00,0.00374381668401,0,0.5
2014-04-02 04:35:00,0.0145433378153,0,0.5
2014-04-02 04:40:00,0.0109842514385,0,0.5
2014-04-02 04:45:00,0.0194875930769,0,0.5
2014-04-02 04:50:00,0.00884768870436,0,0.5
2014-04-02 04:55:00,0.0151040653524,0,0.5
2014-04-02 05:00:00,0.0344096295574,0,0.5
2014-04-02 05:05:00,0.0039870144776,0,0.5
2014-04-02 05:10:00,0.0252520602846,0,0.5
2014-04-02 05:15:00,0.0313506319281,0,0.5
2014-04-02 05:20:00,0.0331640574537,0,0.5
2014-04-02 05:25:00,0.0101587547113,0,0.5
2014-04-02 05:30:00,0.0107579680959,0,0.5
2014-04-02 05:35:00,0.0108964308489,0,0.5
2014-04-02 05:40:00,0.0030537149035,0,0.5
2014-04-02 05:45:00,0.0236730131615,0,0.5
2014-04-02 05:50:00,0.0159540040929,0,0.5
2014-04-02 05:55:00,0.0138309031006,0,0.5
2014-04-02 06:00:00,0.000735391321846,0,0.5
2014-04-02 06:05:00,0.0250043275003,0,0.5
2014-04-02 06:10:00,0.00157756052755,0,0.5
2014-04-02 06:15:00,0.0309561671049,0,0.5
2014-04-02 06:20:00,0.00857409569321,0,0.5
2014-04-02 06:25:00,0.0133437926721,0,0.5
2014-04-02 06:30:00,0.00664990658791,0,0.5
2014-04-02 06:35:00,0.0353232782442,0,0.5
2014-04-02 06:40:00,0.0335245602832,0,0.5
2014-04-02 06:45:00,0.0338314167041,0,0.5
2014-04-02 06:50:00,0.0147962293443,0,0.5
2014-04-02 06:55:00,0.014433302031,0,0.5
2014-04-02 07:00:00,0.00340468378433,0,0.5
2014-04-02 07:05:00,0.0193564041337,0,0.5
2014-04-02 07:10:00,0.0338913209403,0,0.5
2014-04-02 07:15:00,0.0287445755619,0,0.5
2014-04-02 07:20:00,0.0360731151132,0,0.5
2014-04-02 07:25:00,0.00811162206209,0,0.5
2014-04-02 07:30:00,0.00669707407283,0,0.5
2014-04-02 07:35:00,6.3908298214e-05,0,0.5
2014-04-02 07:40:00,0.0213720646721,0,0.5
2014-04-02 07:45:00,0.0356647639725,0,0.5
2014-04-02 07:50:00,0.0278278372557,0,0.5
2014-04-02 07:55:00,0.0149850515697,0,0.5
2014-04-02 08:00:00,0.00137341672007,0,0.5
2014-04-02 08:05:00,0.0325988356154,0,0.5
2014-04-02 08:10:00,0.0319442362261,0,0.5
2014-04-02 08:15:00,0.0108383405605,0,0.5
2014-04-02 08:20:00,0.0120952641656,0,0.739637787976
2014-04-02 08:25:00,0.0272539236659,0,0.686249070195
2014-04-02 08:30:00,0.00678636871683,0,0.715477098907
2014-04-02 08:35:00,0.0316821073449,0,0.723225840775
2014-04-02 08:40:00,0.00269033432173,0,0.769616447099
2014-04-02 08:45:00,0.029053694971,0,0.744203147475
2014-04-02 08:50:00,0.033407375356,0,0.681325383203
2014-04-02 08:55:00,0.024015726178,0,0.698803837989
2014-04-02 09:00:00,0.711667168317,0,0.999667304955
2014-04-02 09:05:00,0.74867430901,0,1.0
2014-04-02 09:10:00,0.766125324934,0,0.999
2014-04-02 09:15:00,0.744743361274,0,0.999
2014-04-02 09:20:00,0.763261750313,0,0.999
2014-04-02 09:25:00,0.730992432406,0,0.999
2014-04-02 09:30:00,0.694214692302,0,0.999
2014-04-02 09:35:00,0.797470366623,0,0.999
2014-04-02 09:40:00,0.780592813356,0,0.999
2014-04-02 09:45:00,0.699179851792,0,0.999
2014-04-02 09:50:00,0.740187566155,0,0.999
2014-04-02 09:55:00,0.760469215428,0,0.999
2014-04-02 10:00:00,0.848474454004,0,0.999
2014-04-02 10:05:00,0.902026175542,0,0.999
2014-04-02 10:10:00,0.895896806264,0,0.999
2014-04-02 10:15:00,0.850917205429,0,0.999
2014-04-02 10:20:00,0.841647828353,0,0.999
2014-04-02 10:25:00,0.927043195678,0,0.999
2014-04-02 10:30:00,0.866720482631,0,0.999
2014-04-02 10:35:00,0.855862634745,0,0.999
2014-04-02 10:40:00,0.924128643259,0,0.999
2014-04-02 10:45:00,0.923878483563,0,0.999
2014-04-02 10:50:00,0.860336096636,0,0.999
2014-04-02 10:55:00,0.942747622479,0,0.999
2014-04-02 11:00:00,0.947466206629,0,0.999
2014-04-02 11:05:00,0.898129005297,0,0.999
2014-04-02 11:10:00,0.90990205509,0,0.999
2014-04-02 11:15:00,0.9530065365,0,0.999
2014-04-02 11:20:00,0.878799497856,0,0.999
2014-04-02 11:25:00,0.915847416273,0,0.999
2014-04-02 11:30:00,0.942468636772,0,0.999
2014-04-02 11:35:00,0.926037623827,0,0.999
2014-04-02 11:40:00,0.93595297838,0,0.999
2014-04-02 11:45:00,0.927004809715,0,0.999
2014-04-02 11:50:00,0.877019484217,0,0.999
2014-04-02 11:55:00,0.907412144912,0,0.999
2014-04-02 12:00:00,0.930813006361,0,0.999
2014-04-02 12:05:00,0.966838839583,0,0.999
2014-04-02 12:10:00,0.948518073271,0,0.999
2014-04-02 12:15:00,0.915507586217,0,0.999
2014-04-02 12:20:00,0.99506051519,0,0.999
2014-04-02 12:25:00,0.869212043581,0,0.999
2014-04-02 12:30:00,0.883590203058,0,0.999
2014-04-02 12:35:00,0.903123447331,0,0.999
2014-04-02 12:40:00,0.88675124193,0,0.999
2014-04-02 12:45:00,0.944384780366,0,0.999
2014-04-02 12:50:00,0.859301519587,0,0.999
2014-04-02 12:55:00,0.879325363296,0,0.999
2014-04-02 13:00:00,0.897273882722,0,0.999
2014-04-02 13:05:00,0.954000356148,0,0.999
2014-04-02 13:10:00,0.98200284587,0,0.999
2014-04-02 13:15:00,0.9707486914,0,0.999
2014-04-02 13:20:00,0.881089860336,0,0.999
2014-04-02 13:25:00,0.936845622021,0,0.999
2014-04-02 13:30:00,0.858972519884,0,0.999
2014-04-02 13:35:00,0.899774153261,0,0.999
2014-04-02 13:40:00,0.971838429118,0,0.999
2014-04-02 13:45:00,0.921029051793,0,0.999
2014-04-02 13:50:00,0.87641505617,0,0.999
2014-04-02 13:55:00,0.918394557979,0,0.999
2014-04-02 14:00:00,0.883628883441,0,0.999
2014-04-02 14:05:00,0.912024372826,0,0.999
2014-04-02 14:10:00,0.925794748611,0,0.999
2014-04-02 14:15:00,0.90567573831,0,0.999
2014-04-02 14:20:00,0.991143783224,0,0.999
2014-04-02 14:25:00,0.936663107118,0,0.999
2014-04-02 14:30:00,0.977455722151,0,0.999
2014-04-02 14:35:00,0.96550087414,0,0.999
2014-04-02 14:40:00,0.951014607865,0,0.999
2014-04-02 14:45:00,0.927112287628,0,0.999
2014-04-02 14:50:00,0.855131455683,0,0.999
2014-04-02 14:55:00,0.944074464586,0,0.999
2014-04-02 15:00:00,0.906652061994,0,0.999
2014-04-02 15:05:00,0.871992523684,0,0.999
2014-04-02 15:10:00,0.919554164666,0,0.999
2014-04-02 15:15:00,0.96188664612,0,0.999
2014-04-02 15:20:00,0.994789773381,0,0.999
2014-04-02 15:25:00,0.909292676076,0,0.999
2014-04-02 15:30:00,0.933828158077,0,0.999
2014-04-02 15:35:00,0.978720727213,0,0.999
2014-04-02 15:40:00,0.903456972369,0,0.999
2014-04-02 15:45:00,0.875556775999,0,0.999
2014-04-02 15:50:00,0.895873398439,0,0.999
2014-04-02 15:55:00,0.985687468139,0,0.999
2014-04-02 16:00:00,0.878058875275,0,0.999
2014-04-02 16:05:00,0.902770673167,0,0.999
2014-04-02 16:10:00,0.922475633829,0,0.999
2014-04-02 16:15:00,0.978129565844,0,0.999
2014-04-02 16:20:00,0.991312851293,0,0.999
2014-04-02 16:25:00,0.916825450103,0,0.999
2014-04-02 16:30:00,0.990474820471,0,0.999
2014-04-02 16:35:00,0.878359498567,0,0.999
2014-04-02 16:40:00,0.877689159074,0,0.999
2014-04-02 16:45:00,0.992991687157,0,0.999
2014-04-02 16:50:00,0.929029413622,0,0.999
2014-04-02 16:55:00,0.881917053875,0,0.999
2014-04-02 17:00:00,0.925875177361,0,0.999
2014-04-02 17:05:00,0.968833094092,0,0.999
2014-04-02 17:10:00,0.975193271678,0,0.999
2014-04-02 17:15:00,0.980584298507,0,0.999
2014-04-02 17:20:00,0.937746054694,0,0.999
2014-04-02 17:25:00,0.981017449955,0,0.999
2014-04-02 17:30:00,0.929082219629,0,0.999
2014-04-02 17:35:00,0.943201122201,0,0.999
2014-04-02 17:40:00,0.965269329068,0,0.881867248994
2014-04-02 17:45:00,0.916772715867,0,0.883439666253
2014-04-02 17:50:00,0.865574062996,0,0.880709913825
2014-04-02 17:55:00,0.905820246239,0,0.877809524189
2014-04-02 18:00:00,0.200066852882,0,0.83806046782
2014-04-02 18:05:00,0.200066860921,0,0.790366704777
2014-04-02 18:10:00,0.200066861739,0,0.738486183379
2014-04-02 18:15:00,0.200066859044,0,0.677156676909
2014-04-02 18:20:00,0.200066863905,0,0.615139025255
2014-04-02 18:25:00,0.200066850657,0,0.548740512923
2014-04-02 18:30:00,0.200066859685,0,0.521068259655
2014-04-02 18:35:00,0.200066862189,0,0.585910872261
2014-04-02 18:40:00,0.200066851482,0,0.644127041076
2014-04-02 18:45:00,0.200066848803,0,0.702362232537
2014-04-02 18:50:00,0.200066864133,0,0.702362231644
2014-04-02 18:55:00,0.200066860152,0,0.702362231705
2014-04-02 19:00:00,0.0415984200289,0,0.714817240706
2014-04-02 19:05:00,0.0578950469086,0,0.725775572346
2014-04-02 19:10:00,0.0417916665974,0,0.737725307321
2014-04-02 19:15:00,0.0611266075649,0,0.747990913232
2014-04-02 19:20:00,0.0627605507255,0,0.757923588994
2014-04-02 19:25:00,0.0628757730598,0,0.767631997637
2014-04-02 19:30:00,0.0666264641771,0,0.776863458198
2014-04-02 19:35:00,0.0430186110289,0,0.787455696688
2014-04-02 19:40:00,0.0405914035664,0,0.797904995352
2014-04-02 19:45:00,0.0413284534918,0,0.807994542274
2014-04-02 19:50:00,0.0443108717945,0,0.807824767703
2014-04-02 19:55:00,0.0444604641307,0,0.808664750191
2014-04-02 20:00:00,0.0198279100571,0,0.810033154218
2014-04-02 20:05:00,0.0140611859408,0,0.812945138777
2014-04-02 20:10:00,0.0356389215099,0,0.814610571159
2014-04-02 20:15:00,0.0293678430213,0,0.816655404845
2014-04-02 20:20:00,0.0205350658766,0,0.819445072852
2014-04-02 20:25:00,0.0123654227348,0,0.821285527056
2014-04-02 20:30:00,0.0198494226079,0,0.822524175462
2014-04-02 20:35:00,0.0136138873974,0,0.824170725392
2014-04-02 20:40:00,0.0263632027013,0,0.825231835338
2014-04-02 20:45:00,0.0178646162732,0,0.826796754599
2014-04-02 20:50:00,0.00869122386747,0,0.827449386444
2014-04-02 20:55:00,0.0375545645506,0,0.826070790814
2014-04-02 21:00:00,0.00422680560283,0,0.827912484912
2014-04-02 21:05:00,0.0188259595367,0,0.828527756268
2014-04-02 21:10:00,0.0144647237304,0,0.828881409869
2014-04-02 21:15:00,0.00599692343119,0,0.829251932098
2014-04-02 21:20:00,0.0228932934319,0,0.829074902395
2014-04-02 21:25:00,0.0225671265119,0,0.828553506964
2014-04-02 21:30:00,0.0186520974098,0,0.829002626911
2014-04-02 21:35:00,0.0369870642826,0,0.827887491102
2014-04-02 21:40:00,0.0197533094324,0,0.827240285336
2014-04-02 21:45:00,0.0271719924239,0,0.827847779701
2014-04-02 21:50:00,0.00418951026381,0,0.827849959428
2014-04-02 21:55:00,0.0345103119515,0,0.826931733778
2014-04-02 22:00:00,0.019946378068,0,0.826610081102
2014-04-02 22:05:00,0.00221704513437,0,0.826831917621
2014-04-02 22:10:00,0.00390347054354,0,0.827943670689
2014-04-02 22:15:00,0.0111560169348,0,0.828609534002
2014-04-02 22:20:00,0.0152233549443,0,0.82880928641
2014-04-02 22:25:00,0.0264326794294,0,0.829423231141
2014-04-02 22:30:00,0.0233009786167,0,0.829217021987
2014-04-02 22:35:00,0.0333550538773,0,0.828857248848
2014-04-02 22:40:00,0.00807757229685,0,0.828630766559
2014-04-02 22:45:00,0.0248658940487,0,0.829192208875
2014-04-02 22:50:00,0.0123751405979,0,0.829632136867
2014-04-02 22:55:00,0.0236410149647,0,0.828385413544
2014-04-02 23:00:00,0.0195332606137,0,0.827472202554
2014-04-02 23:05:00,0.016235866067,0,0.827174733161
2014-04-02 23:10:00,0.00725887918348,0,0.82764097712
2014-04-02 23:15:00,0.0287402318093,0,0.827505974611
2014-04-02 23:20:00,0.0219176105735,0,0.827586916147
2014-04-02 23:25:00,0.0316886120222,0,0.827684388293
2014-04-02 23:30:00,0.0336640612108,0,0.826183930525
2014-04-02 23:35:00,0.0144294898683,0,0.826796948876
2014-04-02 23:40:00,0.0295426634798,0,0.825787823834
2014-04-02 23:45:00,0.0342445075871,0,0.82516267662
2014-04-02 23:50:00,0.00379516425321,0,0.826090032138
2014-04-02 23:55:00,0.016988211317,0,0.826045772074
2014-04-03 00:00:00,0.0314693170854,0,0.824617662656
2014-04-03 00:05:00,0.0344232710421,0,0.82428136111
2014-04-03 00:10:00,0.0320065502067,0,0.823683328759
2014-04-03 00:15:00,0.0192205793604,0,0.824422196849
2014-04-03 00:20:00,0.0120494935977,0,0.82569844079
2014-04-03 00:25:00,0.0130384309582,0,0.825780374244
2014-04-03 00:30:00,0.0311130008282,0,0.825687879498
2014-04-03 00:35:00,0.0133218549665,0,0.826917687119
2014-04-03 00:40:00,0.02163867128,0,0.825869215466
2014-04-03 00:45:00,0.0194604348607,0,0.825723631631
2014-04-03 00:50:00,0.00721251239784,0,0.827148718506
2014-04-03 00:55:00,0.0242711971367,0,0.827742941906
2014-04-03 01:00:00,0.0310192930082,0,0.827800658637
2014-04-03 01:05:00,0.00459248320057,0,0.828654395549
2014-04-03 01:10:00,0.0286499505354,0,0.827685338777
2014-04-03 01:15:00,0.025670633433,0,0.82694559209
2014-04-03 01:20:00,0.0106625966749,0,0.828142163495
2014-04-03 01:25:00,0.0115007320606,0,0.828248462227
2014-04-03 01:30:00,0.00724999554821,0,0.829086850381
2014-04-03 01:35:00,0.0296781306138,0,0.828491763566
2014-04-03 01:40:00,0.0235516250855,0,0.827537412526
2014-04-03 01:45:00,0.0317874398992,0,0.827097261194
2014-04-03 01:50:00,0.0166849765328,0,0.827936060354
2014-04-03 01:55:00,0.025723718773,0,0.826698617703
2014-04-03 02:00:00,0.0113048257612,0,0.777818528491
2014-04-03 02:05:00,0.0363542692815,0,0.777041726072
2014-04-03 02:10:00,0.0341956597683,0,0.775325202124
2014-04-03 02:15:00,0.0206311995664,0,0.774657204297
2014-04-03 02:20:00,0.00151015404076,0,0.775077270355
2014-04-03 02:25:00,0.00395957280457,0,0.776954004524
2014-04-03 02:30:00,0.000206923597938,0,0.77864976571
2014-04-03 02:35:00,0.021203425293,0,0.779416153848
2014-04-03 02:40:00,0.03467273702,0,0.778112756816
2014-04-03 02:45:00,0.0252367817775,0,0.778148098199
2014-04-03 02:50:00,0.0117837319673,0,0.778113339709
2014-04-03 02:55:00,0.0314498330432,0,0.778469151156
2014-04-03 03:00:00,0.0254544652655,0,0.779102505851
2014-04-03 03:05:00,0.034323594489,0,0.778109945449
2014-04-03 03:10:00,0.0190885352503,0,0.776831964179
2014-04-03 03:15:00,0.0287667196061,0,0.775021328481
2014-04-03 03:20:00,0.0330473931139,0,0.772611595842
2014-04-03 03:25:00,0.021407665438,0,0.772596563974
2014-04-03 03:30:00,0.0235899850857,0,0.773411433968
2014-04-03 03:35:00,0.0168130777302,0,0.774029690802
2014-04-03 03:40:00,0.00911840963636,0,0.774225113037
2014-04-03 03:45:00,0.032271792362,0,0.774164856929
2014-04-03 03:50:00,0.00758737905349,0,0.775472604034
2014-04-03 03:55:00,0.035410424703,0,0.775393178515
2014-04-03 04:00:00,0.020247719157,0,0.775308447829
2014-04-03 04:05:00,0.0149973683982,0,0.776313748303
2014-04-03 04:10:00,0.00155327931149,0,0.778603493385
2014-04-03 04:15:00,0.0154887329562,0,0.779032321906
2014-04-03 04:20:00,0.0305918484084,0,0.778524983241
2014-04-03 04:25:00,0.0175397584041,0,0.778472291541
2014-04-03 04:30:00,0.0219690428148,0,0.777539307589
2014-04-03 04:35:00,0.0189288901623,0,0.778507986808
2014-04-03 04:40:00,0.0291968385916,0,0.776937955005
2014-04-03 04:45:00,0.0181478049034,0,0.778192676388
2014-04-03 04:50:00,0.0309086783738,0,0.777418268704
2014-04-03 04:55:00,0.00930013770833,0,0.777832304817
2014-04-03 05:00:00,0.0147617866605,0,0.776871728291
2014-04-03 05:05:00,0.0335101310734,0,0.775557332523
2014-04-03 05:10:00,0.00400456922623,0,0.777494943367
2014-04-03 05:15:00,0.0139442555745,0,0.777756239967
2014-04-03 05:20:00,0.0248675137744,0,0.777545612569
2014-04-03 05:25:00,0.0347064260292,0,0.776397088937
2014-04-03 05:30:00,0.0133677730801,0,0.777549358142
2014-04-03 05:35:00,0.0227818572065,0,0.777212375576
2014-04-03 05:40:00,0.00334963631522,0,0.779212152678
2014-04-03 05:45:00,0.0350980174109,0,0.777340479386
2014-04-03 05:50:00,0.034944335613,0,0.775869922128
2014-04-03 05:55:00,0.00183336613304,0,0.778175516211
2014-04-03 06:00:00,0.00126679413218,0,0.778374147198
2014-04-03 06:05:00,0.035357595139,0,0.77681785748
2014-04-03 06:10:00,0.0103190745967,0,0.777875893029
2014-04-03 06:15:00,0.028309298652,0,0.778340216544
2014-04-03 06:20:00,0.0108516628063,0,0.778522691614
2014-04-03 06:25:00,0.00476419872737,0,0.779826868707
2014-04-03 06:30:00,0.0326987681054,0,0.77770022543
2014-04-03 06:35:00,0.0276809969373,0,0.778238767861
2014-04-03 06:40:00,0.0354909037555,0,0.778199107551
2014-04-03 06:45:00,0.0347723627796,0,0.7758015057
2014-04-03 06:50:00,0.0352893637717,0,0.773309652498
2014-04-03 06:55:00,0.00723972481335,0,0.775370157322
2014-04-03 07:00:00,0.0255155618117,0,0.774257865865
2014-04-03 07:05:00,0.0184248438637,0,0.774981702345
2014-04-03 07:10:00,0.00770674653397,0,0.775211727768
2014-04-03 07:15:00,0.0183618293774,0,0.774216212338
2014-04-03 07:20:00,0.0207535831785,0,0.775090881232
2014-04-03 07:25:00,0.0359457887105,0,0.774485908686
2014-04-03 07:30:00,0.0157027626959,0,0.775932838612