timestamp,value,is_anomaly,anomaly_score
2015-02-26 21:42:53,0.0503597122302,0,0.5
2015-02-26 21:47:53,0.0287769784173,0,0.5
2015-02-26 21:52:53,0.10071942446,0,0.5
2015-02-26 21:57:53,0.0431654676259,0,0.5
2015-02-26 22:02:53,0.00719424460432,0,0.5
2015-02-26 22:07:53,0.0647482014388,0,0.5
2015-02-26 22:12:53,0.0503597122302,0,0.5
2015-02-26 22:17:53,0.0791366906475,0,0.5
2015-02-26 22:22:53,0.0647482014388,0,0.5
2015-02-26 22:27:53,0.10071942446,0,0.5
2015-02-26 22:32:53,0.0503597122302,0,0.5
2015-02-26 22:37:53,0.0431654676259,0,0.5
2015-02-26 22:42:53,0.0431654676259,0,0.5
2015-02-26 22:47:53,0.0791366906475,0,0.5
2015-02-26 22:52:53,0.0575539568345,0,0.5
2015-02-26 22:57:53,0.0935251798561,0,0.5
2015-02-26 23:02:53,0.0431654676259,0,0.5
2015-02-26 23:07:53,0.0431654676259,0,0.5
2015-02-26 23:12:53,0.0215827338129,0,0.5
2015-02-26 23:17:53,0.0431654676259,0,0.5
2015-02-26 23:22:53,0.0359712230216,0,0.5
2015-02-26 23:27:53,0.0287769784173,0,0.5
2015-02-26 23:32:53,0.0431654676259,0,0.5
2015-02-26 23:37:53,0.0359712230216,0,0.5
2015-02-26 23:42:53,0.0359712230216,0,0.5
2015-02-26 23:47:53,0.0287769784173,0,0.5
2015-02-26 23:52:53,0.0143884892086,0,0.5
2015-02-26 23:57:53,0.0287769784173,0,0.5
2015-02-27 00:02:53,0.0359712230216,0,0.5
2015-02-27 00:07:53,0.0359712230216,0,0.5
2015-02-27 00:12:53,0.00719424460432,0,0.5
2015-02-27 00:17:53,0.0431654676259,0,0.5
2015-02-27 00:22:53,0.0215827338129,0,0.5
2015-02-27 00:27:53,0.0431654676259,0,0.5
2015-02-27 00:32:53,0.0575539568345,0,0.5
2015-02-27 00:37:53,0.0215827338129,0,0.5
2015-02-27 00:42:53,0.0719424460432,0,0.5
2015-02-27 00:47:53,0.0503597122302,0,0.5
2015-02-27 00:52:53,0.0215827338129,0,0.5
2015-02-27 00:57:53,0.0431654676259,0,0.5
2015-02-27 01:02:53,0.0575539568345,0,0.5
2015-02-27 01:07:53,0.0791366906475,0,0.5
2015-02-27 01:12:53,0.0431654676259,0,0.5
2015-02-27 01:17:53,0.00719424460432,0,0.5
2015-02-27 01:22:53,0.0143884892086,0,0.5
2015-02-27 01:27:53,0.0431654676259,0,0.5
2015-02-27 01:32:53,0.0359712230216,0,0.5
2015-02-27 01:37:53,0.0359712230216,0,0.5
2015-02-27 01:42:53,0.0647482014388,0,0.5
2015-02-27 01:47:53,0.0431654676259,0,0.5
2015-02-27 01:52:53,0.0143884892086,0,0.5
2015-02-27 01:57:53,0.0287769784173,0,0.5
2015-02-27 02:02:53,0.0575539568345,0,0.5
2015-02-27 02:07:53,0.0575539568345,0,0.5
2015-02-27 02:12:53,0.0719424460432,0,0.5
2015-02-27 02:17:53,0.0143884892086,0,0.5
2015-02-27 02:22:53,0.0215827338129,0,0.5
2015-02-27 02:27:53,0.0143884892086,0,0.5
2015-02-27 02:32:53,0.0143884892086,0,0.5
2015-02-27 02:37:53,0.0647482014388,0,0.5
2015-02-27 02:42:53,0.0431654676259,0,0.5
2015-02-27 02:47:53,0.0359712230216,0,0.5
2015-02-27 02:52:53,0.0143884892086,0,0.5
2015-02-27 02:57:53,0.0575539568345,0,0.5
2015-02-27 03:02:53,0.0,0,0.5
2015-02-27 03:07:53,0.0647482014388,0,0.5
2015-02-27 03:12:53,0.0647482014388,0,0.5
2015-02-27 03:17:53,0.00719424460432,0,0.5
2015-02-27 03:22:53,0.0575539568345,0,0.5
2015-02-27 03:27:53,0.0143884892086,0,0.5
2015-02-27 03:32:53,0.0143884892086,0,0.5
2015-02-27 03:37:53,0.0143884892086,0,0.5
2015-02-27 03:42:53,0.00719424460432,0,0.5
2015-02-27 03:47:53,0.0215827338129,0,0.5
2015-02-27 03:52:53,0.0143884892086,0,0.5
2015-02-27 03:57:53,0.0287769784173,0,0.5
2015-02-27 04:02:53,0.0215827338129,0,0.5
2015-02-27 04:07:53,0.00719424460432,0,0.5
2015-02-27 04:12:53,0.0143884892086,0,0.5
2015-02-27 04:17:53,0.00719424460432,0,0.5
2015-02-27 04:22:53,0.00719424460432,0,0.5
2015-02-27 04:27:53,0.0215827338129,0,0.5
2015-02-27 04:32:53,0.0143884892086,0,0.5
2015-02-27 04:37:53,0.00719424460432,0,0.5
2015-02-27 04:42:53,0.0143884892086,0,0.5
2015-02-27 04:47:53,0.0215827338129,0,0.5
2015-02-27 04:52:53,0.0287769784173,0,0.5
2015-02-27 04:57:53,0.431654676259,0,0.5
2015-02-27 05:02:53,0.0,0,0.5
2015-02-27 05:07:53,0.0143884892086,0,0.5
2015-02-27 05:12:53,0.00719424460432,0,0.5
2015-02-27 05:17:53,0.00719424460432,0,0.5
2015-02-27 05:22:53,0.00719424460432,0,0.5
2015-02-27 05:27:53,0.0,0,0.5
2015-02-27 05:32:53,0.0431654676259,0,0.5
2015-02-27 05:37:53,0.0287769784173,0,0.5
2015-02-27 05:42:53,0.0143884892086,0,0.5
2015-02-27 05:47:53,0.00719424460432,0,0.5
2015-02-27 05:52:53,0.0143884892086,0,0.5
2015-02-27 05:57:53,0.0215827338129,0,0.5
2015-02-27 06:02:53,0.00719424460432,0,0.5
2015-02-27 06:07:53,0.0359712230216,0,0.5
2015-02-27 06:12:53,0.0143884892086,0,0.5
2015-02-27 06:17:53,0.0143884892086,0,0.5
2015-02-27 06:22:53,0.0503597122302,0,0.5
2015-02-27 06:27:53,0.0,0,0.5
2015-02-27 06:32:53,0.0,0,0.5
2015-02-27 06:37:53,0.00719424460432,0,0.5
2015-02-27 06:42:53,0.00719424460432,0,0.5
2015-02-27 06:47:53,0.00719424460432,0,0.5
2015-02-27 06:52:53,0.00719424460432,0,0.5
2015-02-27 06:57:53,0.0,0,0.5
2015-02-27 07:02:53,0.00719424460432,0,0.5
2015-02-27 07:07:53,0.0143884892086,0,0.5
2015-02-27 07:12:53,0.0,0,0.5
2015-02-27 07:17:53,0.00719424460432,0,0.5
2015-02-27 07:22:53,0.0215827338129,0,0.5
2015-02-27 07:27:53,0.0,0,0.5
2015-02-27 07:32:53,0.0,0,0.5
2015-02-27 07:37:53,0.00719424460432,0,0.5
2015-02-27 07:42:53,0.0143884892086,0,0.5
2015-02-27 07:47:53,0.0143884892086,0,0.5
2015-02-27 07:52:53,0.00719424460432,0,0.5
2015-02-27 07:57:53,0.00719424460432,0,0.5
2015-02-27 08:02:53,0.0359712230216,0,0.5
2015-02-27 08:07:53,0.0215827338129,0,0.5
2015-02-27 08:12:53,0.0215827338129,0,0.5
2015-02-27 08:17:53,0.0287769784173,0,0.5
2015-02-27 08:22:53,0.0143884892086,0,0.5
2015-02-27 08:27:53,0.00719424460432,0,0.5
2015-02-27 08:32:53,0.0143884892086,0,0.5
2015-02-27 08:37:53,0.0143884892086,0,0.5
2015-02-27 08:42:53,0.0215827338129,0,0.5
2015-02-27 08:47:53,0.0143884892086,0,0.5
2015-02-27 08:52:53,0.0287769784173,0,0.5
2015-02-27 08:57:53,0.0287769784173,0,0.5
2015-02-27 09:02:53,0.0,0,0.5
2015-02-27 09:07:53,0.00719424460432,0,0.5
2015-02-27 09:12:53,0.00719424460432,0,0.5
2015-02-27 09:17:53,0.00719424460432,0,0.5
2015-02-27 09:22:53,0.0143884892086,0,0.5
2015-02-27 09:27:53,0.0143884892086,0,0.5
2015-02-27 09:32:53,0.0215827338129,0,0.5
2015-02-27 09:37:53,0.0287769784173,0,0.5
2015-02-27 09:42:53,0.0,0,0.5
2015-02-27 09:47:53,0.0287769784173,0,0.5
2015-02-27 09:52:53,0.00719424460432,0,0.5
2015-02-27 09:57:53,0.00719424460432,0,0.5
2015-02-27 10:02:53,0.0359712230216,0,0.5
2015-02-27 10:07:53,0.0359712230216,0,0.5
2015-02-27 10:12:53,0.0503597122302,0,0.5
2015-02-27 10:17:53,0.0431654676259,0,0.5
2015-02-27 10:22:53,0.0143884892086,0,0.5
2015-02-27 10:27:53,0.0935251798561,0,0.5
2015-02-27 10:32:53,0.0143884892086,0,0.5
2015-02-27 10:37:53,0.0143884892086,0,0.5
2015-02-27 10:42:53,0.0,0,0.5
2015-02-27 10:47:53,0.00719424460432,0,0.5
2015-02-27 10:52:53,0.0,0,0.5
2015-02-27 10:57:53,0.0575539568345,0,0.5
2015-02-27 11:02:53,0.0143884892086,0,0.5
2015-02-27 11:07:53,0.0215827338129,0,0.5
2015-02-27 11:12:53,0.00719424460432,0,0.5
2015-02-27 11:17:53,0.00719424460432,0,0.5
2015-02-27 11:22:53,0.0143884892086,0,0.5
2015-02-27 11:27:53,0.0,0,0.5
2015-02-27 11:32:53,0.0287769784173,0,0.5
2015-02-27 11:37:53,0.0431654676259,0,0.5
2015-02-27 11:42:53,0.0359712230216,0,0.5
2015-02-27 11:47:53,0.0503597122302,0,0.5
2015-02-27 11:52:53,0.0143884892086,0,0.5
2015-02-27 11:57:53,0.0143884892086,0,0.5
2015-02-27 12:02:53,0.0431654676259,0,0.5
2015-02-27 12:07:53,0.0215827338129,0,0.5
2015-02-27 12:12:53,0.0287769784173,0,0.5
2015-02-27 12:17:53,0.0215827338129,0,0.5
2015-02-27 12:22:53,0.0359712230216,0,0.5
2015-02-27 12:27:53,0.0359712230216,0,0.5
2015-02-27 12:32:53,0.0287769784173,0,0.5
2015-02-27 12:37:53,0.00719424460432,0,0.5
2015-02-27 12:42:53,0.0,0,0.5
2015-02-27 12:47:53,0.0143884892086,0,0.5
2015-02-27 12:52:53,0.0215827338129,0,0.5
2015-02-27 12:57:53,0.0575539568345,0,0.5
2015-02-27 13:02:53,0.0215827338129,0,0.5
2015-02-27 13:07:53,0.0647482014388,0,0.5
2015-02-27 13:12:53,0.0215827338129,0,0.5
2015-02-27 13:17:53,0.0431654676259,0,0.5
2015-02-27 13:22:53,0.0431654676259,0,0.5
2015-02-27 13:27:53,0.00719424460432,0,0.5
2015-02-27 13:32:53,0.00719424460432,0,0.5
2015-02-27 13:37:53,0.0359712230216,0,0.5
2015-02-27 13:42:53,0.0431654676259,0,0.5
2015-02-27 13:47:53,0.0431654676259,0,0.5
2015-02-27 13:52:53,0.0287769784173,0,0.5
2015-02-27 13:57:53,0.0287769784173,0,0.5
2015-02-27 14:02:53,0.0503597122302,0,0.5
2015-02-27 14:07:53,0.0287769784173,0,0.5
2015-02-27 14:12:53,0.0647482014388,0,0.5
2015-02-27 14:17:53,0.0503597122302,0,0.5
2015-02-27 14:22:53,0.0143884892086,0,0.5
2015-02-27 14:27:53,0.0503597122302,0,0.5
2015-02-27 14:32:53,0.0503597122302,0,0.5
2015-02-27 14:37:53,0.0287769784173,0,0.5
2015-02-27 14:42:53,0.0503597122302,0,0.5
2015-02-27 14:47:53,0.0,0,0.5
2015-02-27 14:52:53,0.0287769784173,0,0.5
2015-02-27 14:57:53,0.0287769784173,0,0.5
2015-02-27 15:02:53,0.0719424460432,0,0.5
2015-02-27 15:07:53,0.0359712230216,0,0.5
2015-02-27 15:12:53,0.0359712230216,0,0.5
2015-02-27 15:17:53,0.0287769784173,0,0.5
2015-02-27 15:22:53,0.0431654676259,0,0.5
2015-02-27 15:27:53,0.0143884892086,0,0.5
2015-02-27 15:32:53,0.0647482014388,0,0.5
2015-02-27 15:37:53,0.00719424460432,0,0.5
2015-02-27 15:42:53,0.0215827338129,0,0.5
2015-02-27 15:47:53,0.0575539568345,0,0.5
2015-02-27 15:52:53,0.0647482014388,0,0.5
2015-02-27 15:57:53,0.0431654676259,0,0.5
2015-02-27 16:02:53,0.0575539568345,0,0.5
2015-02-27 16:07:53,0.0287769784173,0,0.5
2015-02-27 16:12:53,0.0215827338129,0,0.5
2015-02-27 16:17:53,0.0143884892086,0,0.5
2015-02-27 16:22:53,0.0215827338129,0,0.5
2015-02-27 16:27:53,0.0719424460432,0,0.5
2015-02-27 16:32:53,0.0215827338129,0,0.5
2015-02-27 16:37:53,0.0143884892086,0,0.5
2015-02-27 16:42:53,0.0143884892086,0,0.5
2015-02-27 16:47:53,0.0575539568345,0,0.5
2015-02-27 16:52:53,0.0503597122302,0,0.5
2015-02-27 16:57:53,0.0719424460432,0,0.5
2015-02-27 17:02:53,0.0287769784173,0,0.5
2015-02-27 17:07:53,0.00719424460432,0,0.5
2015-02-27 17:12:53,0.0287769784173,0,0.5
2015-02-27 17:17:53,0.0287769784173,0,0.5
2015-02-27 17:22:53,0.0431654676259,0,0.5
2015-02-27 17:27:53,0.0935251798561,0,0.5
2015-02-27 17:32:53,0.0431654676259,0,0.5
2015-02-27 17:37:53,0.0287769784173,0,0.5
2015-02-27 17:42:53,0.0287769784173,0,0.5
2015-02-27 17:47:53,0.0575539568345,0,0.5
2015-02-27 17:52:53,0.0431654676259,0,0.5
2015-02-27 17:57:53,0.0503597122302,0,0.5
2015-02-27 18:02:53,0.00719424460432,0,0.5
2015-02-27 18:07:53,0.0359712230216,0,0.5
2015-02-27 18:12:53,0.0719424460432,0,0.5
2015-02-27 18:17:53,0.0863309352518,0,0.5
2015-02-27 18:22:53,0.0359712230216,0,0.5
2015-02-27 18:27:53,0.0647482014388,0,0.5
2015-02-27 18:32:53,0.115107913669,0,0.5
2015-02-27 18:37:53,0.0647482014388,0,0.5
2015-02-27 18:42:53,0.0359712230216,0,0.5
2015-02-27 18:47:53,0.0863309352518,0,0.5
2015-02-27 18:52:53,0.0359712230216,0,0.5
2015-02-27 18:57:53,0.0791366906475,0,0.5
2015-02-27 19:02:53,0.0431654676259,0,0.5
2015-02-27 19:07:53,0.0575539568345,0,0.5
2015-02-27 19:12:53,0.0287769784173,0,0.5
2015-02-27 19:17:53,0.0287769784173,0,0.5
2015-02-27 19:22:53,0.0359712230216,0,0.5
2015-02-27 19:27:53,0.0287769784173,0,0.5
2015-02-27 19:32:53,0.00719424460432,0,0.5
2015-02-27 19:37:53,0.10071942446,0,0.5
2015-02-27 19:42:53,0.0863309352518,0,0.5
2015-02-27 19:47:53,0.0647482014388,0,0.5
2015-02-27 19:52:53,0.0359712230216,0,0.5
2015-02-27 19:57:53,0.0503597122302,0,0.5
2015-02-27 20:02:53,0.0359712230216,0,0.5
2015-02-27 20:07:53,0.0431654676259,0,0.5
2015-02-27 20:12:53,0.0791366906475,0,0.5
2015-02-27 20:17:53,0.0287769784173,0,0.5
2015-02-27 20:22:53,0.0287769784173,0,0.5
2015-02-27 20:27:53,0.0287769784173,0,0.5
2015-02-27 20:32:53,0.0,0,0.5
2015-02-27 20:37:53,0.0575539568345,0,0.5
2015-02-27 20:42:53,0.0287769784173,0,0.5
2015-02-27 20:47:53,0.0359712230216,0,0.5
2015-02-27 20:52:53,0.0143884892086,0,0.5
2015-02-27 20:57:53,0.0791366906475,0,0.5
2015-02-27 21:02:53,0.0359712230216,0,0.5
2015-02-27 21:07:53,0.0143884892086,0,0.5
2015-02-27 21:12:53,0.0215827338129,0,0.5
2015-02-27 21:17:53,0.0215827338129,0,0.5
2015-02-27 21:22:53,0.0143884892086,0,0.5
2015-02-27 21:27:53,0.0431654676259,0,0.5
2015-02-27 21:32:53,0.0575539568345,0,0.5
2015-02-27 21:37:53,0.0863309352518,0,0.5
2015-02-27 21:42:53,0.107913669065,0,0.5
2015-02-27 21:47:53,0.0503597122302,0,0.5
2015-02-27 21:52:53,0.0503597122302,0,0.5
2015-02-27 21:57:53,0.0287769784173,0,0.5
2015-02-27 22:02:53,0.0215827338129,0,0.5
2015-02-27 22:07:53,0.0359712230216,0,0.5
2015-02-27 22:12:53,0.0431654676259,0,0.5
2015-02-27 22:17:53,0.0503597122302,0,0.5
2015-02-27 22:22:53,0.0359712230216,0,0.5
2015-02-27 22:27:53,0.0359712230216,0,0.5
2015-02-27 22:32:53,0.0143884892086,0,0.5
2015-02-27 22:37:53,0.0503597122302,0,0.5
2015-02-27 22:42:53,0.0287769784173,0,0.5
2015-02-27 22:47:53,0.0287769784173,0,0.5
2015-02-27 22:52:53,0.0359712230216,0,0.5
2015-02-27 22:57:53,0.0287769784173,0,0.5
2015-02-27 23:02:53,0.0,0,0.5
2015-02-27 23:07:53,0.0143884892086,0,0.5
2015-02-27 23:12:53,0.00719424460432,0,0.5
2015-02-27 23:17:53,0.0359712230216,0,0.5
2015-02-27 23:22:53,0.0431654676259,0,0.5
2015-02-27 23:27:53,0.0287769784173,0,0.5
2015-02-27 23:32:53,0.0431654676259,0,0.5
2015-02-27 23:37:53,0.0287769784173,0,0.5
2015-02-27 23:42:53,0.0287769784173,0,0.5
2015-02-27 23:47:53,0.0215827338129,0,0.5
2015-02-27 23:52:53,0.0647482014388,0,0.5
2015-02-27 23:57:53,0.0575539568345,0,0.5
2015-02-28 00:02:53,0.00719424460432,0,0.5
2015-02-28 00:07:53,0.0287769784173,0,0.5
2015-02-28 00:12:53,0.00719424460432,0,0.5
2015-02-28 00:17:53,0.0287769784173,0,0.5
2015-02-28 00:22:53,0.0431654676259,0,0.5
2015-02-28 00:27:53,0.0143884892086,0,0.5
2015-02-28 00:32:53,0.0287769784173,0,0.5
2015-02-28 00:37:53,0.00719424460432,0,0.5
2015-02-28 00:42:53,0.0143884892086,0,0.5
2015-02-28 00:47:53,0.0215827338129,0,0.5
2015-02-28 00:52:53,0.0575539568345,0,0.5
2015-02-28 00:57:53,0.00719424460432,0,0.5
2015-02-28 01:02:53,0.00719424460432,0,0.5
2015-02-28 01:07:53,0.0143884892086,0,0.5
2015-02-28 01:12:53,0.00719424460432,0,0.5
2015-02-28 01:17:53,0.0359712230216,0,0.5
2015-02-28 01:22:53,0.0359712230216,0,0.5
2015-02-28 01:27:53,0.0287769784173,0,0.5
2015-02-28 01:32:53,0.0287769784173,0,0.5
2015-02-28 01:37:53,0.0143884892086,0,0.5
2015-02-28 01:42:53,0.00719424460432,0,0.5
2015-02-28 01:47:53,0.0647482014388,0,0.5
2015-02-28 01:52:53,0.0287769784173,0,0.5
2015-02-28 01:57:53,0.0215827338129,0,0.5
2015-02-28 02:02:53,0.00719424460432,0,0.5
2015-02-28 02:07:53,0.00719424460432,0,0.5
2015-02-28 02:12:53,0.0,0,0.5
2015-02-28 02:17:53,0.00719424460432,0,0.5
2015-02-28 02:22:53,0.0215827338129,0,0.5
2015-02-28 02:27:53,0.0143884892086,0,0.5
2015-02-28 02:32:53,0.0143884892086,0,0.5
2015-02-28 02:37:53,0.0215827338129,0,0.5
2015-02-28 02:42:53,0.0,0,0.5
2015-02-28 02:47:53,0.0431654676259,0,0.5
2015-02-28 02:52:53,0.0,0,0.5
2015-02-28 02:57:53,0.0143884892086,0,0.5
2015-02-28 03:02:53,0.00719424460432,0,0.5
2015-02-28 03:07:53,0.0143884892086,0,0.5
2015-02-28 03:12:53,0.0143884892086,0,0.5
2015-02-28 03:17:53,0.0215827338129,0,0.5
2015-02-28 03:22:53,0.0215827338129,0,0.5
2015-02-28 03:27:53,0.0575539568345,0,0.5
2015-02-28 03:32:53,0.0647482014388,0,0.5
2015-02-28 03:37:53,0.0575539568345,0,0.5
2015-02-28 03:42:53,0.0143884892086,0,0.5
2015-02-28 03:47:53,0.0575539568345,0,0.5
2015-02-28 03:52:53,0.0287769784173,0,0.5
2015-02-28 03:57:53,0.0143884892086,0,0.5
2015-02-28 04:02:53,0.0143884892086,0,0.5
2015-02-28 04:07:53,0.00719424460432,0,0.5
2015-02-28 04:12:53,0.00719424460432,0,0.5
2015-02-28 04:17:53,0.00719424460432,0,0.5
2015-02-28 04:22:53,0.0215827338129,0,0.5
2015-02-28 04:27:53,0.0359712230216,0,0.5
2015-02-28 04:32:53,0.0143884892086,0,0.5
2015-02-28 04:37:53,0.0,0,0.5
2015-02-28 04:42:53,0.0143884892086,0,0.5
2015-02-28 04:47:53,0.0215827338129,0,0.5
2015-02-28 04:52:53,0.0143884892086,0,0.5
2015-02-28 04:57:53,0.0287769784173,0,0.5
2015-02-28 05:02:53,0.0,0,0.5
2015-02-28 05:07:53,0.0,0,0.5
2015-02-28 05:12:53,0.0,0,0.5
2015-02-28 05:17:53,0.0,0,0.5
2015-02-28 05:22:53,0.0,0,0.5
2015-02-28 05:27:53,0.00719424460432,0,0.5
2015-02-28 05:32:53,0.0143884892086,0,0.5
2015-02-28 05:37:53,0.0143884892086,0,0.5
2015-02-28 05:42:53,0.0143884892086,0,0.5
2015-02-28 05:47:53,0.0215827338129,0,0.5
2015-02-28 05:52:53,0.0431654676259,0,0.5
2015-02-28 05:57:53,0.0,0,0.5
2015-02-28 06:02:53,0.0,0,0.857123602309
2015-02-28 06:07:53,0.0,0,0.857123602309
2015-02-28 06:12:53,0.0143884892086,0,0.837543612494
2015-02-28 06:17:53,0.0143884892086,0,0.827127841258
2015-02-28 06:22:53,0.0143884892086,0,0.827127841258
2015-02-28 06:27:53,0.0,0,0.847542142308
2015-02-28 06:32:53,0.0143884892086,0,0.847542142308
2015-02-28 06:37:53,0.00719424460432,0,0.866289564628
2015-02-28 06:42:53,0.0,0,0.912806215991
2015-02-28 06:47:53,0.0,0,0.912806215991
2015-02-28 06:52:53,0.00719424460432,0,0.90603098986
2015-02-28 06:57:53,0.0,0,0.90603098986
2015-02-28 07:02:53,0.00719424460432,0,0.912806215991
2015-02-28 07:07:53,0.0,0,0.925251818904
2015-02-28 07:12:53,0.00719424460432,0,0.930942744234
2015-02-28 07:17:53,0.0,0,0.930942744234
2015-02-28 07:22:53,0.0,0,0.941316544522
2015-02-28 07:27:53,0.0215827338129,0,0.930942744234
2015-02-28 07:32:53,0.0287769784173,0,0.90603098986
2015-02-28 07:37:53,0.0143884892086,0,0.891329735593
2015-02-28 07:42:53,0.0143884892086,0,0.883387876302
2015-02-28 07:47:53,0.0,0,0.883387876302
2015-02-28 07:52:53,0.0143884892086,0,0.875042934422
2015-02-28 07:57:53,0.0287769784173,0,0.837543612494
2015-02-28 08:02:53,0.0143884892086,0,0.827127841258
2015-02-28 08:07:53,0.00719424460432,0,0.816296118104
2015-02-28 08:12:53,0.0215827338129,0,0.781341097852
2015-02-28 08:17:53,0.0,0,0.816296118104
2015-02-28 08:22:53,0.00719424460432,0,0.847542142308
2015-02-28 08:27:53,0.0359712230216,0,0.816296118104
2015-02-28 08:32:53,0.00719424460432,0,0.827127841258
2015-02-28 08:37:53,0.00719424460432,0,0.816296118104
2015-02-28 08:42:53,0.00719424460432,0,0.827127841258
2015-02-28 08:47:53,0.00719424460432,0,0.857123602309
2015-02-28 08:52:53,0.0431654676259,0,0.816296118104
2015-02-28 08:57:53,0.0575539568345,0,0.729262794811
2015-02-28 09:02:53,0.0143884892086,0,0.742838539801
2015-02-28 09:07:53,0.0215827338129,0,0.701081005657
2015-02-28 09:12:53,0.0503597122302,0,0.609606584677
2015-02-28 09:17:53,0.0431654676259,0,0.593577505615
2015-02-28 09:22:53,0.0719424460432,0,0.554512300407
2015-02-28 09:27:53,0.0215827338129,0,0.587120052502
2015-02-28 09:32:53,0.0143884892086,0,0.603215630418
2015-02-28 09:37:53,0.0143884892086,0,0.619137234307
2015-02-28 09:42:53,0.0143884892086,0,0.554512300407
2015-02-28 09:47:53,0.0143884892086,0,0.544647069673
2015-02-28 09:52:53,0.0143884892086,0,0.544647069673
2015-02-28 09:57:53,0.0719424460432,0,0.570876644004
2015-02-28 10:02:53,0.00719424460432,0,0.528146664936
2015-02-28 10:07:53,0.0143884892086,0,0.593577505615
2015-02-28 10:12:53,0.00719424460432,0,0.729262794811
2015-02-28 10:17:53,0.0,0,0.768889349253
2015-02-28 10:22:53,0.0143884892086,0,0.768889349253
2015-02-28 10:27:53,0.00719424460432,0,0.781341097852
2015-02-28 10:32:53,0.0,0,0.805051246477
2015-02-28 10:37:53,0.0287769784173,0,0.781341097852
2015-02-28 10:42:53,0.0143884892086,0,0.781341097852
2015-02-28 10:47:53,0.0143884892086,0,0.866289564628
2015-02-28 10:52:53,0.0287769784173,0,0.837543612494
2015-02-28 10:57:53,0.0503597122302,0,0.781341097852
2015-02-28 11:02:53,0.0143884892086,0,0.768889349253
2015-02-28 11:07:53,0.00719424460432,0,0.756051548791
2015-02-28 11:12:53,0.00719424460432,0,0.768889349253
2015-02-28 11:17:53,0.0143884892086,0,0.756051548791
2015-02-28 11:22:53,0.0,0,0.756051548791
2015-02-28 11:27:53,0.0215827338129,0,0.768889349253
2015-02-28 11:32:53,0.0,0,0.793397588066
2015-02-28 11:37:53,0.0143884892086,0,0.793397588066
2015-02-28 11:42:53,0.0,0,0.837543612494
2015-02-28 11:47:53,0.0215827338129,0,0.875042934422
2015-02-28 11:52:53,0.0215827338129,0,0.866289564628
2015-02-28 11:57:53,0.0431654676259,0,0.816296118104
2015-02-28 12:02:53,0.00719424460432,0,0.816296118104
2015-02-28 12:07:53,0.0215827338129,0,0.805051246477
2015-02-28 12:12:53,0.00719424460432,0,0.793397588066
2015-02-28 12:17:53,0.0287769784173,0,0.781341097852
2015-02-28 12:22:53,0.00719424460432,0,0.768889349253
2015-02-28 12:27:53,0.0143884892086,0,0.768889349253
2015-02-28 12:32:53,0.0143884892086,0,0.742838539801
2015-02-28 12:37:53,0.0143884892086,0,0.756051548791
2015-02-28 12:42:53,0.0143884892086,0,0.768889349253
2015-02-28 12:47:53,0.00719424460432,0,0.827127841258
2015-02-28 12:52:53,0.0143884892086,0,0.816296118104
2015-02-28 12:57:53,0.00719424460432,0,0.837543612494
2015-02-28 13:02:53,0.0431654676259,0,0.781341097852
2015-02-28 13:07:53,0.0359712230216,0,0.768889349253
2015-02-28 13:12:53,0.00719424460432,0,0.768889349253
2015-02-28 13:17:53,0.0287769784173,0,0.742838539801
2015-02-28 13:22:53,0.0143884892086,0,0.742838539801
2015-02-28 13:27:53,0.0215827338129,0,0.729262794811
2015-02-28 13:32:53,0.00719424460432,0,0.742838539801
2015-02-28 13:37:53,0.0359712230216,0,0.686507820414
2015-02-28 13:42:53,0.0215827338129,0,0.671637519618
2015-02-28 13:47:53,0.00719424460432,0,0.671637519618
2015-02-28 13:52:53,0.0143884892086,0,0.729262794811
2015-02-28 13:57:53,0.0143884892086,0,0.768889349253
2015-02-28 14:02:53,0.0,0,0.781341097852
2015-02-28 14:07:53,0.0215827338129,0,0.793397588066
2015-02-28 14:12:53,0.00719424460432,0,0.805051246477
2015-02-28 14:17:53,0.0287769784173,0,0.793397588066
2015-02-28 14:22:53,0.0215827338129,0,0.768889349253
2015-02-28 14:27:53,0.0431654676259,0,0.756051548791
2015-02-28 14:32:53,0.0143884892086,0,0.768889349253
2015-02-28 14:37:53,0.0143884892086,0,0.756051548791
2015-02-28 14:42:53,0.0143884892086,0,0.756051548791
2015-02-28 14:47:53,0.0143884892086,0,0.756051548791
2015-02-28 14:52:53,0.0143884892086,0,0.729262794811
2015-02-28 14:57:53,0.0215827338129,0,0.729262794811
2015-02-28 15:02:53,0.0215827338129,0,0.701081005657
2015-02-28 15:07:53,0.00719424460432,0,0.742838539801
2015-02-28 15:12:53,0.0287769784173,0,0.729262794811
2015-02-28 15:17:53,0.0143884892086,0,0.781341097852
2015-02-28 15:22:53,0.0,0,0.805051246477
2015-02-28 15:27:53,0.0143884892086,0,0.805051246477
2015-02-28 15:32:53,0.00719424460432,0,0.816296118104
2015-02-28 15:37:53,0.0287769784173,0,0.793397588066
2015-02-28 15:42:53,0.00719424460432,0,0.805051246477
2015-02-28 15:47:53,0.0215827338129,0,0.805051246477
2015-02-28 15:52:53,0.0215827338129,0,0.805051246477
2015-02-28 15:57:53,0.0431654676259,0,0.742838539801
2015-02-28 16:02:53,0.0143884892086,0,0.768889349253
2015-02-28 16:07:53,0.00719424460432,0,0.781341097852
2015-02-28 16:12:53,0.0215827338129,0,0.742838539801
2015-02-28 16:17:53,0.0143884892086,0,0.742838539801
2015-02-28 16:22:53,0.0143884892086,0,0.729262794811
2015-02-28 16:27:53,0.0503597122302,0,0.686507820414
2015-02-28 16:32:53,0.00719424460432,0,0.686507820414
2015-02-28 16:37:53,0.0,0,0.729262794811
2015-02-28 16:42:53,0.0431654676259,0,0.686507820414
2015-02-28 16:47:53,0.0287769784173,0,0.715338396293
2015-02-28 16:52:53,0.0575539568345,0,0.625451471591
2015-02-28 16:57:53,0.0215827338129,0,0.593577505615
2015-02-28 17:02:53,0.0215827338129,0,0.593577505615
2015-02-28 17:07:53,0.0143884892086,0,0.593577505615
2015-02-28 17:12:53,0.0215827338129,0,0.577390041081
2015-02-28 17:17:53,0.00719424460432,0,0.671637519618
2015-02-28 17:22:53,0.0,0,0.686507820414
2015-02-28 17:27:53,0.0359712230216,0,0.609606584677
2015-02-28 17:32:53,0.0431654676259,0,0.609606584677
2015-02-28 17:37:53,0.0,0,0.671637519618
2015-02-28 17:42:53,0.0287769784173,0,0.729262794811
2015-02-28 17:47:53,0.0215827338129,0,0.729262794811
2015-02-28 17:52:53,0.0359712230216,0,0.701081005657
2015-02-28 17:57:53,0.0287769784173,0,0.671637519618
2015-02-28 18:02:53,0.0431654676259,0,0.625451471591
2015-02-28 18:07:53,0.0359712230216,0,0.561070801417
2015-02-28 18:12:53,0.0503597122302,0,0.554512300407
2015-02-28 18:17:53,0.0647482014388,0,0.619137234307
2015-02-28 18:22:53,0.0431654676259,0,0.619137234307
2015-02-28 18:27:53,0.00719424460432,0,0.634859599765
2015-02-28 18:32:53,0.0215827338129,0,0.619137234307
2015-02-28 18:37:53,0.0143884892086,0,0.603215630418
2015-02-28 18:42:53,0.0647482014388,0,0.665610662253
2015-02-28 18:47:53,0.0143884892086,0,0.634859599765
2015-02-28 18:52:53,0.00719424460432,0,0.554512300407
2015-02-28 18:57:53,0.0359712230216,0,0.554512300407
2015-02-28 19:02:53,0.0215827338129,0,0.511597801082
2015-02-28 19:07:53,0.00719424460432,0,0.641087287505
2015-02-28 19:12:53,0.0431654676259,0,0.641087287505
2015-02-28 19:17:53,0.00719424460432,0,0.641087287505
2015-02-28 19:22:53,0.0143884892086,0,0.656490197766
2015-02-28 19:27:53,0.0575539568345,0,0.561070801417
2015-02-28 19:32:53,0.0215827338129,0,0.656490197766
2015-02-28 19:37:53,0.0431654676259,0,0.593577505615
2015-02-28 19:42:53,0.0503597122302,0,0.504971057869
2015-02-28 19:47:53,0.0359712230216,0,0.504971057869
2015-02-28 19:52:53,0.0359712230216,0,0.538054535861
2015-02-28 19:57:53,0.0143884892086,0,0.554512300407
2015-02-28 20:02:53,0.0143884892086,0,0.511597801082
2015-02-28 20:07:53,0.0215827338129,0,0.521531344535
2015-02-28 20:12:53,0.0215827338129,0,0.538054535861
2015-02-28 20:17:53,0.00719424460432,0,0.577390041081
2015-02-28 20:22:53,0.0143884892086,0,0.593577505615
2015-02-28 20:27:53,0.0287769784173,0,0.625451471591
2015-02-28 20:32:53,0.0143884892086,0,0.701081005657
2015-02-28 20:37:53,0.0287769784173,0,0.715338396293
2015-02-28 20:42:53,0.0143884892086,0,0.756051548791
2015-02-28 20:47:53,0.0503597122302,0,0.686507820414
2015-02-28 20:52:53,0.0215827338129,0,0.671637519618
2015-02-28 20:57:53,0.0287769784173,0,0.656490197766
2015-02-28 21:02:53,0.0215827338129,0,0.656490197766
2015-02-28 21:07:53,0.0215827338129,0,0.625451471591
2015-02-28 21:12:53,0.0143884892086,0,0.625451471591
2015-02-28 21:17:53,0.0143884892086,0,0.656490197766
2015-02-28 21:22:53,0.0143884892086,0,0.656490197766
2015-02-28 21:27:53,0.0287769784173,0,0.656490197766
2015-02-28 21:32:53,0.00719424460432,0,0.671637519618
2015-02-28 21:37:53,0.0431654676259,0,0.686507820414
2015-02-28 21:42:53,0.0359712230216,0,0.656490197766
2015-02-28 21:47:53,0.0431654676259,0,0.625451471591
2015-02-28 21:52:53,0.0431654676259,0,0.577390041081
2015-02-28 21:57:53,0.0287769784173,0,0.561070801417
2015-02-28 22:02:53,0.0503597122302,0,0.521531344535
2015-02-28 22:07:53,0.0143884892086,0,0.521531344535
2015-02-28 22:12:53,0.0287769784173,0,0.554512300407
2015-02-28 22:17:53,0.0287769784173,0,0.554512300407
2015-02-28 22:22:53,0.0431654676259,0,0.634859599765
2015-02-28 22:27:53,0.0287769784173,0,0.603215630418
2015-02-28 22:32:53,0.0287769784173,0,0.587120052502
2015-02-28 22:37:53,0.0359712230216,0,0.570876644004
2015-02-28 22:42:53,0.0215827338129,0,0.521531344535
2015-02-28 22:47:53,0.0359712230216,0,0.538054535861
2015-02-28 22:52:53,0.0287769784173,0,0.511597801082
2015-02-28 22:57:53,0.00719424460432,0,0.528146664936
2015-02-28 23:02:53,0.0503597122302,0,0.521531344535
2015-02-28 23:07:53,0.00719424460432,0,0.528146664936
2015-02-28 23:12:53,0.0287769784173,0,0.561070801417
2015-02-28 23:17:53,0.0359712230216,0,0.544647069673
2015-02-28 23:22:53,0.0,0,0.609606584677
2015-02-28 23:27:53,0.00719424460432,0,0.671637519618
2015-02-28 23:32:53,0.00719424460432,0,0.701081005657
2015-02-28 23:37:53,0.0359712230216,0,0.701081005657
2015-02-28 23:42:53,0.0143884892086,0,0.729262794811
2015-02-28 23:47:53,0.0,0,0.742838539801
2015-02-28 23:52:53,0.0215827338129,0,0.793397588066
2015-02-28 23:57:53,0.0215827338129,0,0.768889349253
2015-03-01 00:02:53,0.0215827338129,0,0.781341097852
2015-03-01 00:07:53,0.0,0,0.837543612494
2015-03-01 00:12:53,0.0143884892086,0,0.816296118104
2015-03-01 00:17:53,0.0,0,0.827127841258
2015-03-01 00:22:53,0.0,0,0.837543612494
2015-03-01 00:27:53,0.0215827338129,0,0.857123602309
2015-03-01 00:32:53,0.00719424460432,0,0.866289564628
2015-03-01 00:37:53,0.0,0,0.866289564628
2015-03-01 00:42:53,0.00719424460432,0,0.883387876302
2015-03-01 00:47:53,0.0143884892086,0,0.891329735593
2015-03-01 00:52:53,0.00719424460432,0,0.90603098986
2015-03-01 00:57:53,0.0143884892086,0,0.891329735593
2015-03-01 01:02:53,0.00719424460432,0,0.898874955329
2015-03-01 01:07:53,0.0215827338129,0,0.875042934422
2015-03-01 01:12:53,0.0215827338129,0,0.847542142308
2015-03-01 01:17:53,0.00719424460432,0,0.866289564628
2015-03-01 01:22:53,0.0,0,0.875042934422
2015-03-01 01:27:53,0.0,0,0.875042934422
2015-03-01 01:32:53,0.00719424460432,0,0.875042934422
2015-03-01 01:37:53,0.0,0,0.891329735593
2015-03-01 01:42:53,0.0143884892086,0,0.883387876302
2015-03-01 01:47:53,0.0215827338129,0,0.875042934422
2015-03-01 01:52:53,0.00719424460432,0,0.875042934422
2015-03-01 01:57:53,0.0143884892086,0,0.883387876302
2015-03-01 02:02:53,0.00719424460432,0,0.898874955329
2015-03-01 02:07:53,0.0,0,0.90603098986
2015-03-01 02:12:53,0.0143884892086,0,0.891329735593
2015-03-01 02:17:53,0.0,0,0.891329735593
2015-03-01 02:22:53,0.0143884892086,0,0.883387876302
2015-03-01 02:27:53,0.00719424460432,0,0.875042934422
2015-03-01 02:32:53,0.0,0,0.891329735593
2015-03-01 02:37:53,0.00719424460432,0,0.90603098986
2015-03-01 02:42:53,0.0215827338129,0,0.891329735593
2015-03-01 02:47:53,0.00719424460432,0,0.898874955329
2015-03-01 02:52:53,0.0215827338129,0,0.883387876302
2015-03-01 02:57:53,0.0359712230216,0,0.837543612494
2015-03-01 03:02:53,0.00719424460432,0,0.847542142308
2015-03-01 03:07:53,0.00719424460432,0,0.837543612494
2015-03-01 03:12:53,0.0143884892086,0,0.837543612494
2015-03-01 03:17:53,0.0,0,0.847542142308
2015-03-01 03:22:53,0.0,0,0.847542142308
2015-03-01 03:27:53,0.0215827338129,0,0.827127841258
2015-03-01 03:32:53,0.0143884892086,0,0.837543612494
2015-03-01 03:37:53,0.0359712230216,0,0.793397588066
2015-03-01 03:42:53,0.00719424460432,0,0.816296118104
2015-03-01 03:47:53,0.0215827338129,0,0.837543612494
2015-03-01 03:52:53,0.00719424460432,0,0.837543612494
2015-03-01 03:57:53,0.0287769784173,0,0.805051246477
2015-03-01 04:02:53,0.0287769784173,0,0.781341097852
2015-03-01 04:07:53,0.0215827338129,0,0.742838539801
2015-03-01 04:12:53,0.0143884892086,0,0.715338396293
2015-03-01 04:17:53,0.0215827338129,0,0.715338396293
2015-03-01 04:22:53,0.0,0,0.742838539801
2015-03-01 04:27:53,0.00719424460432,0,0.793397588066