timestamp,value,is_anomaly,anomaly_score,S(t)_reward_low_FP_rate,S(t)_reward_low_FN_rate,S(t)_standard,predicted_anomaly
2015-02-26 21:42:53,0.0340705319785,0,0.5,0.0,0.0,0.0,0
2015-02-26 21:47:53,0.0257023311417,0,0.5,0.0,0.0,0.0,0
2015-02-26 21:52:53,0.0328750747161,0,0.5,0.0,0.0,0.0,0
2015-02-26 21:57:53,0.0382546323969,0,0.5,0.0,0.0,0.0,0
2015-02-26 22:02:53,0.0555887627017,0,0.5,0.0,0.0,0.0,0
2015-02-26 22:07:53,0.0621637776449,0,0.5,0.0,0.0,0.0,0
2015-02-26 22:12:53,0.0531978481769,0,0.5,0.0,0.0,0.0,0
2015-02-26 22:17:53,0.0520023909145,0,0.5,0.0,0.0,0.0,0
2015-02-26 22:22:53,0.0340705319785,0,0.5,0.0,0.0,0.0,0
2015-02-26 22:27:53,0.0406455469217,0,0.5,0.0,0.0,0.0,0
2015-02-26 22:32:53,0.0382546323969,0,0.5,0.0,0.0,0.0,0
2015-02-26 22:37:53,0.0364614465033,0,0.5,0.0,0.0,0.0,0
2015-02-26 22:42:53,0.0436341900777,0,0.5,0.0,0.0,0.0,0
2015-02-26 22:47:53,0.0472205618649,0,0.5,0.0,0.0,0.0,0
2015-02-26 22:52:53,0.0478182904961,0,0.5,0.0,0.0,0.0,0
2015-02-26 22:57:53,0.0454273759713,0,0.5,0.0,0.0,0.0,0
2015-02-26 23:02:53,0.0292887029289,0,0.5,0.0,0.0,0.0,0
2015-02-26 23:07:53,0.0352659892409,0,0.5,0.0,0.0,0.0,0
2015-02-26 23:12:53,0.0328750747161,0,0.5,0.0,0.0,0.0,0
2015-02-26 23:17:53,0.0286909742977,0,0.5,0.0,0.0,0.0,0
2015-02-26 23:22:53,0.0245068738793,0,0.5,0.0,0.0,0.0,0
2015-02-26 23:27:53,0.0292887029289,0,0.5,0.0,0.0,0.0,0
2015-02-26 23:32:53,0.0376569037657,0,0.5,0.0,0.0,0.0,0
2015-02-26 23:37:53,0.0215182307233,0,0.5,0.0,0.0,0.0,0
2015-02-26 23:42:53,0.0251046025105,0,0.5,0.0,0.0,0.0,0
2015-02-26 23:47:53,0.0298864315601,0,0.5,0.0,0.0,0.0,0
2015-02-26 23:52:53,0.0209205020921,0,0.5,0.0,0.0,0.0,0
2015-02-26 23:57:53,0.0245068738793,0,0.5,0.0,0.0,0.0,0
2015-02-27 00:02:53,0.0233114166169,0,0.5,0.0,0.0,0.0,0
2015-02-27 00:07:53,0.0286909742977,0,0.5,0.0,0.0,0.0,0
2015-02-27 00:12:53,0.0185295875672,0,0.5,0.0,0.0,0.0,0
2015-02-27 00:17:53,0.0209205020921,0,0.5,0.0,0.0,0.0,0
2015-02-27 00:22:53,0.0191273161984,0,0.5,0.0,0.0,0.0,0
2015-02-27 00:27:53,0.0215182307233,0,0.5,0.0,0.0,0.0,0
2015-02-27 00:32:53,0.0221159593545,0,0.5,0.0,0.0,0.0,0
2015-02-27 00:37:53,0.0370591751345,0,0.5,0.0,0.0,0.0,0
2015-02-27 00:42:53,0.0245068738793,0,0.5,0.0,0.0,0.0,0
2015-02-27 00:47:53,0.0304841601913,0,0.5,0.0,0.0,0.0,0
2015-02-27 00:52:53,0.0388523610281,0,0.5,0.0,0.0,0.0,0
2015-02-27 00:57:53,0.0233114166169,0,0.5,0.0,0.0,0.0,0
2015-02-27 01:02:53,0.0334728033473,0,0.5,0.0,0.0,0.0,0
2015-02-27 01:07:53,0.0251046025105,0,0.5,0.0,0.0,0.0,0
2015-02-27 01:12:53,0.0370591751345,0,0.5,0.0,0.0,0.0,0
2015-02-27 01:17:53,0.0274955170353,0,0.5,0.0,0.0,0.0,0
2015-02-27 01:22:53,0.0274955170353,0,0.5,0.0,0.0,0.0,0
2015-02-27 01:27:53,0.0370591751345,0,0.5,0.0,0.0,0.0,0
2015-02-27 01:32:53,0.0245068738793,0,0.5,0.0,0.0,0.0,0
2015-02-27 01:37:53,0.0239091452481,0,0.5,0.0,0.0,0.0,0
2015-02-27 01:42:53,0.0280932456665,0,0.5,0.0,0.0,0.0,0
2015-02-27 01:47:53,0.0286909742977,0,0.5,0.0,0.0,0.0,0
2015-02-27 01:52:53,0.0257023311417,0,0.5,0.0,0.0,0.0,0
2015-02-27 01:57:53,0.0245068738793,0,0.5,0.0,0.0,0.0,0
2015-02-27 02:02:53,0.0328750747161,0,0.5,0.0,0.0,0.0,0
2015-02-27 02:07:53,0.0537955768081,0,0.5,0.0,0.0,0.0,0
2015-02-27 02:12:53,0.0472205618649,0,0.5,0.0,0.0,0.0,0
2015-02-27 02:17:53,0.0340705319785,0,0.5,0.0,0.0,0.0,0
2015-02-27 02:22:53,0.0257023311417,0,0.5,0.0,0.0,0.0,0
2015-02-27 02:27:53,0.0233114166169,0,0.5,0.0,0.0,0.0,0
2015-02-27 02:32:53,0.0340705319785,0,0.5,0.0,0.0,0.0,0
2015-02-27 02:37:53,0.0334728033473,0,0.5,0.0,0.0,0.0,0
2015-02-27 02:42:53,0.0609683203825,0,0.5,0.0,0.0,0.0,0
2015-02-27 02:47:53,0.0508069336521,0,0.5,0.0,0.0,0.0,0
2015-02-27 02:52:53,0.0472205618649,0,0.5,0.0,0.0,0.0,0
2015-02-27 02:57:53,0.0490137477585,0,0.5,0.0,0.0,0.0,0
2015-02-27 03:02:53,0.0358637178721,0,0.5,0.0,0.0,0.0,0
2015-02-27 03:07:53,0.0280932456665,0,0.5,0.0,0.0,0.0,0
2015-02-27 03:12:53,0.0257023311417,0,0.5,0.0,0.0,0.0,0
2015-02-27 03:17:53,0.0292887029289,0,0.5,0.0,0.0,0.0,0
2015-02-27 03:22:53,0.0358637178721,0,0.5,0.0,0.0,0.0,0
2015-02-27 03:27:53,0.0328750747161,0,0.5,0.0,0.0,0.0,0
2015-02-27 03:32:53,0.0376569037657,0,0.5,0.0,0.0,0.0,0
2015-02-27 03:37:53,0.0340705319785,0,0.5,0.0,0.0,0.0,0
2015-02-27 03:42:53,0.0364614465033,0,0.5,0.0,0.0,0.0,0
2015-02-27 03:47:53,0.0352659892409,0,0.5,0.0,0.0,0.0,0
2015-02-27 03:52:53,0.0209205020921,0,0.5,0.0,0.0,0.0,0
2015-02-27 03:57:53,0.0412432755529,0,0.5,0.0,0.0,0.0,0
2015-02-27 04:02:53,0.0286909742977,0,0.5,0.0,0.0,0.0,0
2015-02-27 04:07:53,0.0280932456665,0,0.5,0.0,0.0,0.0,0
2015-02-27 04:12:53,0.0263000597729,0,0.5,0.0,0.0,0.0,0
2015-02-27 04:17:53,0.0280932456665,0,0.5,0.0,0.0,0.0,0
2015-02-27 04:22:53,0.0304841601913,0,0.5,0.0,0.0,0.0,0
2015-02-27 04:27:53,0.0322773460849,0,0.5,0.0,0.0,0.0,0
2015-02-27 04:32:53,0.0245068738793,0,0.5,0.0,0.0,0.0,0
2015-02-27 04:37:53,0.0316796174537,0,0.5,0.0,0.0,0.0,0
2015-02-27 04:42:53,0.0292887029289,0,0.5,0.0,0.0,0.0,0
2015-02-27 04:47:53,0.0137477585176,0,0.5,0.0,0.0,0.0,0
2015-02-27 04:52:53,0.0185295875672,0,0.5,0.0,0.0,0.0,0
2015-02-27 04:57:53,0.0227136879857,0,0.5,0.0,0.0,0.0,0
2015-02-27 05:02:53,0.0340705319785,0,0.5,0.0,0.0,0.0,0
2015-02-27 05:07:53,0.0334728033473,0,0.5,0.0,0.0,0.0,0
2015-02-27 05:12:53,0.0418410041841,0,0.5,0.0,0.0,0.0,0
2015-02-27 05:17:53,0.0340705319785,0,0.5,0.0,0.0,0.0,0
2015-02-27 05:22:53,0.0382546323969,0,0.5,0.0,0.0,0.0,0
2015-02-27 05:27:53,0.0472205618649,0,0.5,0.0,0.0,0.0,0
2015-02-27 05:32:53,0.0388523610281,0,0.5,0.0,0.0,0.0,0
2015-02-27 05:37:53,0.0418410041841,0,0.5,0.0,0.0,0.0,0
2015-02-27 05:42:53,0.0304841601913,0,0.5,0.0,0.0,0.0,0
2015-02-27 05:47:53,0.0257023311417,0,0.5,0.0,0.0,0.0,0
2015-02-27 05:52:53,0.0358637178721,0,0.5,0.0,0.0,0.0,0
2015-02-27 05:57:53,0.0292887029289,0,0.5,0.0,0.0,0.0,0
2015-02-27 06:02:53,0.0221159593545,0,0.5,0.0,0.0,0.0,0
2015-02-27 06:07:53,0.0322773460849,0,0.5,0.0,0.0,0.0,0
2015-02-27 06:12:53,0.0346682606097,0,0.5,0.0,0.0,0.0,0
2015-02-27 06:17:53,0.0400478182905,0,0.5,0.0,0.0,0.0,0
2015-02-27 06:22:53,0.0430364614465,0,0.5,0.0,0.0,0.0,0
2015-02-27 06:27:53,0.0292887029289,0,0.5,0.0,0.0,0.0,0
2015-02-27 06:32:53,0.0268977884041,0,0.5,0.0,0.0,0.0,0
2015-02-27 06:37:53,0.0286909742977,0,0.5,0.0,0.0,0.0,0
2015-02-27 06:42:53,0.0173341303048,0,0.5,0.0,0.0,0.0,0
2015-02-27 06:47:53,0.0137477585176,0,0.5,0.0,0.0,0.0,0
2015-02-27 06:52:53,0.0155409444112,0,0.5,0.0,0.0,0.0,0
2015-02-27 06:57:53,0.0167364016736,0,0.5,0.0,0.0,0.0,0
2015-02-27 07:02:53,0.0161386730424,0,0.5,0.0,0.0,0.0,0
2015-02-27 07:07:53,0.0107591153616,0,0.5,0.0,0.0,0.0,0
2015-02-27 07:12:53,0.0221159593545,0,0.5,0.0,0.0,0.0,0
2015-02-27 07:17:53,0.0209205020921,0,0.5,0.0,0.0,0.0,0
2015-02-27 07:22:53,0.01494321578,0,0.5,0.0,0.0,0.0,0
2015-02-27 07:27:53,0.0167364016736,0,0.5,0.0,0.0,0.0,0
2015-02-27 07:32:53,0.0161386730424,0,0.5,0.0,0.0,0.0,0
2015-02-27 07:37:53,0.0209205020921,0,0.5,0.0,0.0,0.0,0
2015-02-27 07:42:53,0.0245068738793,0,0.5,0.0,0.0,0.0,0
2015-02-27 07:47:53,0.0203227734608,0,0.5,0.0,0.0,0.0,0
2015-02-27 07:52:53,0.0251046025105,0,0.5,0.0,0.0,0.0,0
2015-02-27 07:57:53,0.0346682606097,0,0.5,0.0,0.0,0.0,0
2015-02-27 08:02:53,0.0352659892409,0,0.5,0.0,0.0,0.0,0
2015-02-27 08:07:53,0.0161386730424,0,0.5,0.0,0.0,0.0,0
2015-02-27 08:12:53,0.0292887029289,0,0.5,0.0,0.0,0.0,0
2015-02-27 08:17:53,0.0310818888225,0,0.5,0.0,0.0,0.0,0
2015-02-27 08:22:53,0.01494321578,0,0.5,0.0,0.0,0.0,0
2015-02-27 08:27:53,0.0215182307233,0,0.5,0.0,0.0,0.0,0
2015-02-27 08:32:53,0.0185295875672,0,0.5,0.0,0.0,0.0,0
2015-02-27 08:37:53,0.0137477585176,0,0.5,0.0,0.0,0.0,0
2015-02-27 08:42:53,0.0143454871488,0,0.5,0.0,0.0,0.0,0
2015-02-27 08:47:53,0.00597728631201,0,0.5,0.0,0.0,0.0,0
2015-02-27 08:52:53,0.0161386730424,0,0.5,0.0,0.0,0.0,0
2015-02-27 08:57:53,0.0191273161984,0,0.5,0.0,0.0,0.0,0
2015-02-27 09:02:53,0.0101613867304,0,0.5,0.0,0.0,0.0,0
2015-02-27 09:07:53,0.0197250448296,0,0.5,0.0,0.0,0.0,0
2015-02-27 09:12:53,0.0239091452481,0,0.5,0.0,0.0,0.0,0
2015-02-27 09:17:53,0.01494321578,0,0.5,0.0,0.0,0.0,0
2015-02-27 09:22:53,0.00956365809922,0,0.5,0.0,0.0,0.0,0
2015-02-27 09:27:53,0.0143454871488,0,0.5,0.0,0.0,0.0,0
2015-02-27 09:32:53,0.0221159593545,0,0.5,0.0,0.0,0.0,0
2015-02-27 09:37:53,0.0203227734608,0,0.5,0.0,0.0,0.0,0
2015-02-27 09:42:53,0.0358637178721,0,0.5,0.0,0.0,0.0,0
2015-02-27 09:47:53,0.0340705319785,0,0.5,0.0,0.0,0.0,0
2015-02-27 09:52:53,0.0370591751345,0,0.5,0.0,0.0,0.0,0
2015-02-27 09:57:53,0.0334728033473,0,0.5,0.0,0.0,0.0,0
2015-02-27 10:02:53,0.0406455469217,0,0.5,0.0,0.0,0.0,0
2015-02-27 10:07:53,0.0322773460849,0,0.5,0.0,0.0,0.0,0
2015-02-27 10:12:53,0.0292887029289,0,0.5,0.0,0.0,0.0,0
2015-02-27 10:17:53,0.0251046025105,0,0.5,0.0,0.0,0.0,0
2015-02-27 10:22:53,0.0233114166169,0,0.5,0.0,0.0,0.0,0
2015-02-27 10:27:53,0.0298864315601,0,0.5,0.0,0.0,0.0,0
2015-02-27 10:32:53,0.0280932456665,0,0.5,0.0,0.0,0.0,0
2015-02-27 10:37:53,0.017931858936,0,0.5,0.0,0.0,0.0,0
2015-02-27 10:42:53,0.0239091452481,0,0.5,0.0,0.0,0.0,0
2015-02-27 10:47:53,0.0268977884041,0,0.5,0.0,0.0,0.0,0
2015-02-27 10:52:53,0.0221159593545,0,0.5,0.0,0.0,0.0,0
2015-02-27 10:57:53,0.0346682606097,0,0.5,0.0,0.0,0.0,0
2015-02-27 11:02:53,0.0209205020921,0,0.5,0.0,0.0,0.0,0
2015-02-27 11:07:53,0.0274955170353,0,0.5,0.0,0.0,0.0,0
2015-02-27 11:12:53,0.0221159593545,0,0.5,0.0,0.0,0.0,0
2015-02-27 11:17:53,0.0209205020921,0,0.5,0.0,0.0,0.0,0
2015-02-27 11:22:53,0.0298864315601,0,0.5,0.0,0.0,0.0,0
2015-02-27 11:27:53,0.0161386730424,0,0.5,0.0,0.0,0.0,0
2015-02-27 11:32:53,0.0322773460849,0,0.5,0.0,0.0,0.0,0
2015-02-27 11:37:53,0.0304841601913,0,0.5,0.0,0.0,0.0,0
2015-02-27 11:42:53,0.0245068738793,0,0.5,0.0,0.0,0.0,0
2015-02-27 11:47:53,0.0298864315601,0,0.5,0.0,0.0,0.0,0
2015-02-27 11:52:53,0.0537955768081,0,0.5,0.0,0.0,0.0,0
2015-02-27 11:57:53,0.0328750747161,0,0.5,0.0,0.0,0.0,0
2015-02-27 12:02:53,0.0340705319785,0,0.5,0.0,0.0,0.0,0
2015-02-27 12:07:53,0.0340705319785,0,0.5,0.0,0.0,0.0,0
2015-02-27 12:12:53,0.0424387328153,0,0.5,0.0,0.0,0.0,0
2015-02-27 12:17:53,0.0209205020921,0,0.5,0.0,0.0,0.0,0
2015-02-27 12:22:53,0.0167364016736,0,0.5,0.0,0.0,0.0,0
2015-02-27 12:27:53,0.0191273161984,0,0.5,0.0,0.0,0.0,0
2015-02-27 12:32:53,0.0191273161984,0,0.5,0.0,0.0,0.0,0
2015-02-27 12:37:53,0.0358637178721,0,0.5,0.0,0.0,0.0,0
2015-02-27 12:42:53,0.0191273161984,0,0.5,0.0,0.0,0.0,0
2015-02-27 12:47:53,0.0280932456665,0,0.5,0.0,0.0,0.0,0
2015-02-27 12:52:53,0.0227136879857,0,0.5,0.0,0.0,0.0,0
2015-02-27 12:57:53,0.0274955170353,0,0.5,0.0,0.0,0.0,0
2015-02-27 13:02:53,0.0322773460849,0,0.5,0.0,0.0,0.0,0
2015-02-27 13:07:53,0.0334728033473,0,0.5,0.0,0.0,0.0,0
2015-02-27 13:12:53,0.0376569037657,0,0.5,0.0,0.0,0.0,0
2015-02-27 13:17:53,0.0400478182905,0,0.5,0.0,0.0,0.0,0
2015-02-27 13:22:53,0.0406455469217,0,0.5,0.0,0.0,0.0,0
2015-02-27 13:27:53,0.0364614465033,0,0.5,0.0,0.0,0.0,0
2015-02-27 13:32:53,0.0263000597729,0,0.5,0.0,0.0,0.0,0
2015-02-27 13:37:53,0.0340705319785,0,0.5,0.0,0.0,0.0,0
2015-02-27 13:42:53,0.0364614465033,0,0.5,0.0,0.0,0.0,0
2015-02-27 13:47:53,0.0328750747161,0,0.5,0.0,0.0,0.0,0
2015-02-27 13:52:53,0.0394500896593,0,0.5,0.0,0.0,0.0,0
2015-02-27 13:57:53,0.0520023909145,0,0.5,0.0,0.0,0.0,0
2015-02-27 14:02:53,0.0406455469217,0,0.5,0.0,0.0,0.0,0
2015-02-27 14:07:53,0.0436341900777,0,0.5,0.0,0.0,0.0,0
2015-02-27 14:12:53,0.0394500896593,0,0.5,0.0,0.0,0.0,0
2015-02-27 14:17:53,0.0436341900777,0,0.5,0.0,0.0,0.0,0
2015-02-27 14:22:53,0.0597728631201,0,0.5,0.0,0.0,0.0,0
2015-02-27 14:27:53,0.0627615062762,0,0.5,0.0,0.0,0.0,0
2015-02-27 14:32:53,0.0537955768081,0,0.5,0.0,0.0,0.0,0
2015-02-27 14:37:53,0.0394500896593,0,0.5,0.0,0.0,0.0,0
2015-02-27 14:42:53,0.0382546323969,0,0.5,0.0,0.0,0.0,0
2015-02-27 14:47:53,0.0346682606097,0,0.5,0.0,0.0,0.0,0
2015-02-27 14:52:53,0.0418410041841,0,0.5,0.0,0.0,0.0,0
2015-02-27 14:57:53,0.0442319187089,0,0.5,0.0,0.0,0.0,0
2015-02-27 15:02:53,0.0286909742977,0,0.5,0.0,0.0,0.0,0
2015-02-27 15:07:53,0.0352659892409,0,0.5,0.0,0.0,0.0,0
2015-02-27 15:12:53,0.0412432755529,0,0.5,0.0,0.0,0.0,0
2015-02-27 15:17:53,0.0400478182905,0,0.5,0.0,0.0,0.0,0
2015-02-27 15:22:53,0.0239091452481,0,0.5,0.0,0.0,0.0,0
2015-02-27 15:27:53,0.0280932456665,0,0.5,0.0,0.0,0.0,0
2015-02-27 15:32:53,0.0251046025105,0,0.5,0.0,0.0,0.0,0
2015-02-27 15:37:53,0.0914524805738,0,0.5,0.0,0.0,0.0,0
2015-02-27 15:42:53,0.0400478182905,0,0.5,0.0,0.0,0.0,0
2015-02-27 15:47:53,0.0436341900777,0,0.5,0.0,0.0,0.0,0
2015-02-27 15:52:53,0.0346682606097,0,0.5,0.0,0.0,0.0,0
2015-02-27 15:57:53,0.0579796772265,0,0.5,0.0,0.0,0.0,0
2015-02-27 16:02:53,0.0591751344889,0,0.5,0.0,0.0,0.0,0
2015-02-27 16:07:53,0.0388523610281,0,0.5,0.0,0.0,0.0,0
2015-02-27 16:12:53,0.0490137477585,0,0.5,0.0,0.0,0.0,0
2015-02-27 16:17:53,0.0394500896593,0,0.5,0.0,0.0,0.0,0
2015-02-27 16:22:53,0.0263000597729,0,0.5,0.0,0.0,0.0,0
2015-02-27 16:27:53,0.0388523610281,0,0.5,0.0,0.0,0.0,0
2015-02-27 16:32:53,0.0448296473401,0,0.5,0.0,0.0,0.0,0
2015-02-27 16:37:53,0.0298864315601,0,0.5,0.0,0.0,0.0,0
2015-02-27 16:42:53,0.0370591751345,0,0.5,0.0,0.0,0.0,0
2015-02-27 16:47:53,0.0340705319785,0,0.5,0.0,0.0,0.0,0
2015-02-27 16:52:53,0.0609683203825,0,0.5,0.0,0.0,0.0,0
2015-02-27 16:57:53,0.0478182904961,0,0.5,0.0,0.0,0.0,0
2015-02-27 17:02:53,0.0502092050209,0,0.5,0.0,0.0,0.0,0
2015-02-27 17:07:53,0.0621637776449,0,0.5,0.0,0.0,0.0,0
2015-02-27 17:12:53,0.0454273759713,0,0.5,0.0,0.0,0.0,0
2015-02-27 17:17:53,0.0424387328153,0,0.5,0.0,0.0,0.0,0
2015-02-27 17:22:53,0.0292887029289,0,0.5,0.0,0.0,0.0,0
2015-02-27 17:27:53,0.0615660490137,0,0.5,0.0,0.0,0.0,0
2015-02-27 17:32:53,0.080095636581,0,0.5,0.0,0.0,0.0,0
2015-02-27 17:37:53,0.0633592349074,0,0.5,0.0,0.0,0.0,0
2015-02-27 17:42:53,0.0759115361626,0,0.5,0.0,0.0,0.0,0
2015-02-27 17:47:53,0.0555887627017,0,0.5,0.0,0.0,0.0,0
2015-02-27 17:52:53,0.0502092050209,0,0.5,0.0,0.0,0.0,0
2015-02-27 17:57:53,0.0334728033473,0,0.5,0.0,0.0,0.0,0
2015-02-27 18:02:53,0.0364614465033,0,0.5,0.0,0.0,0.0,0
2015-02-27 18:07:53,0.0340705319785,0,0.5,0.0,0.0,0.0,0
2015-02-27 18:12:53,0.0268977884041,0,0.5,0.0,0.0,0.0,0
2015-02-27 18:17:53,0.0322773460849,0,0.5,0.0,0.0,0.0,0
2015-02-27 18:22:53,0.0382546323969,0,0.5,0.0,0.0,0.0,0
2015-02-27 18:27:53,0.0442319187089,0,0.5,0.0,0.0,0.0,0
2015-02-27 18:32:53,0.0334728033473,0,0.5,0.0,0.0,0.0,0
2015-02-27 18:37:53,0.0436341900777,0,0.5,0.0,0.0,0.0,0
2015-02-27 18:42:53,0.0502092050209,0,0.5,0.0,0.0,0.0,0
2015-02-27 18:47:53,0.0340705319785,0,0.5,0.0,0.0,0.0,0
2015-02-27 18:52:53,0.0376569037657,0,0.5,0.0,0.0,0.0,0
2015-02-27 18:57:53,0.0418410041841,0,0.5,0.0,0.0,0.0,0
2015-02-27 19:02:53,0.0442319187089,0,0.5,0.0,0.0,0.0,0
2015-02-27 19:07:53,0.0340705319785,0,0.5,0.0,0.0,0.0,0
2015-02-27 19:12:53,0.0370591751345,0,0.5,0.0,0.0,0.0,0
2015-02-27 19:17:53,0.0412432755529,0,0.5,0.0,0.0,0.0,0
2015-02-27 19:22:53,0.0364614465033,0,0.5,0.0,0.0,0.0,0
2015-02-27 19:27:53,0.0394500896593,0,0.5,0.0,0.0,0.0,0
2015-02-27 19:32:53,0.0388523610281,0,0.5,0.0,0.0,0.0,0
2015-02-27 19:37:53,0.0328750747161,0,0.5,0.0,0.0,0.0,0
2015-02-27 19:42:53,0.0322773460849,0,0.5,0.0,0.0,0.0,0
2015-02-27 19:47:53,0.0328750747161,0,0.5,0.0,0.0,0.0,0
2015-02-27 19:52:53,0.0316796174537,0,0.5,0.0,0.0,0.0,0
2015-02-27 19:57:53,0.0400478182905,0,0.5,0.0,0.0,0.0,0
2015-02-27 20:02:53,0.0418410041841,0,0.5,0.0,0.0,0.0,0
2015-02-27 20:07:53,0.0454273759713,0,0.5,0.0,0.0,0.0,0
2015-02-27 20:12:53,0.0400478182905,0,0.5,0.0,0.0,0.0,0
2015-02-27 20:17:53,0.0657501494322,0,0.5,0.0,0.0,0.0,0
2015-02-27 20:22:53,0.0245068738793,0,0.5,0.0,0.0,0.0,0
2015-02-27 20:27:53,0.0382546323969,0,0.5,0.0,0.0,0.0,0
2015-02-27 20:32:53,0.0364614465033,0,0.5,0.0,0.0,0.0,0
2015-02-27 20:37:53,0.0233114166169,0,0.5,0.0,0.0,0.0,0
2015-02-27 20:42:53,0.0364614465033,0,0.5,0.0,0.0,0.0,0
2015-02-27 20:47:53,0.0436341900777,0,0.5,0.0,0.0,0.0,0
2015-02-27 20:52:53,0.0370591751345,0,0.5,0.0,0.0,0.0,0
2015-02-27 20:57:53,0.0400478182905,0,0.5,0.0,0.0,0.0,0
2015-02-27 21:02:53,0.0304841601913,0,0.5,0.0,0.0,0.0,0
2015-02-27 21:07:53,0.0484160191273,0,0.5,0.0,0.0,0.0,0
2015-02-27 21:12:53,0.0520023909145,0,0.5,0.0,0.0,0.0,0
2015-02-27 21:17:53,0.0310818888225,0,0.5,0.0,0.0,0.0,0
2015-02-27 21:22:53,0.0370591751345,0,0.5,0.0,0.0,0.0,0
2015-02-27 21:27:53,0.0645546921698,0,0.5,0.0,0.0,0.0,0
2015-02-27 21:32:53,0.0454273759713,0,0.5,0.0,0.0,0.0,0
2015-02-27 21:37:53,0.0340705319785,0,0.5,0.0,0.0,0.0,0
2015-02-27 21:42:53,0.0406455469217,0,0.5,0.0,0.0,0.0,0
2015-02-27 21:47:53,0.0352659892409,0,0.5,0.0,0.0,0.0,0
2015-02-27 21:52:53,0.0406455469217,0,0.5,0.0,0.0,0.0,0
2015-02-27 21:57:53,0.0322773460849,0,0.5,0.0,0.0,0.0,0
2015-02-27 22:02:53,0.0334728033473,0,0.5,0.0,0.0,0.0,0
2015-02-27 22:07:53,0.0334728033473,0,0.5,0.0,0.0,0.0,0
2015-02-27 22:12:53,0.0448296473401,0,0.5,0.0,0.0,0.0,0
2015-02-27 22:17:53,0.0412432755529,0,0.5,0.0,0.0,0.0,0
2015-02-27 22:22:53,0.0304841601913,0,0.5,0.0,0.0,0.0,0
2015-02-27 22:27:53,0.0346682606097,0,0.5,0.0,0.0,0.0,0
2015-02-27 22:32:53,0.0358637178721,0,0.5,0.0,0.0,0.0,0
2015-02-27 22:37:53,0.0484160191273,0,0.5,0.0,0.0,0.0,0
2015-02-27 22:42:53,0.0388523610281,0,0.5,0.0,0.0,0.0,0
2015-02-27 22:47:53,0.0418410041841,0,0.5,0.0,0.0,0.0,0
2015-02-27 22:52:53,0.0382546323969,0,0.5,0.0,0.0,0.0,0
2015-02-27 22:57:53,0.0316796174537,0,0.5,0.0,0.0,0.0,0
2015-02-27 23:02:53,0.0388523610281,0,0.5,0.0,0.0,0.0,0
2015-02-27 23:07:53,0.0388523610281,0,0.5,0.0,0.0,0.0,0
2015-02-27 23:12:53,0.0394500896593,0,0.5,0.0,0.0,0.0,0
2015-02-27 23:17:53,0.0286909742977,0,0.5,0.0,0.0,0.0,0
2015-02-27 23:22:53,0.0274955170353,0,0.5,0.0,0.0,0.0,0
2015-02-27 23:27:53,0.0298864315601,0,0.5,0.0,0.0,0.0,0
2015-02-27 23:32:53,0.0257023311417,0,0.5,0.0,0.0,0.0,0
2015-02-27 23:37:53,0.0268977884041,0,0.5,0.0,0.0,0.0,0
2015-02-27 23:42:53,0.0292887029289,0,0.5,0.0,0.0,0.0,0
2015-02-27 23:47:53,0.0292887029289,0,0.5,0.0,0.0,0.0,0
2015-02-27 23:52:53,0.0298864315601,0,0.5,0.0,0.0,0.0,0
2015-02-27 23:57:53,0.0340705319785,0,0.5,0.0,0.0,0.0,0
2015-02-28 00:02:53,0.0233114166169,0,0.5,0.0,0.0,0.0,0
2015-02-28 00:07:53,0.0209205020921,0,0.5,0.0,0.0,0.0,0
2015-02-28 00:12:53,0.0376569037657,0,0.5,0.0,0.0,0.0,0
2015-02-28 00:17:53,0.0370591751345,0,0.5,0.0,0.0,0.0,0
2015-02-28 00:22:53,0.0394500896593,0,0.5,0.0,0.0,0.0,0
2015-02-28 00:27:53,0.0310818888225,0,0.5,0.0,0.0,0.0,0
2015-02-28 00:32:53,0.0286909742977,0,0.5,0.0,0.0,0.0,0
2015-02-28 00:37:53,0.0394500896593,0,0.5,0.0,0.0,0.0,0
2015-02-28 00:42:53,0.0346682606097,0,0.5,0.0,0.0,0.0,0
2015-02-28 00:47:53,0.0245068738793,0,0.5,0.0,0.0,0.0,0
2015-02-28 00:52:53,0.0215182307233,0,0.5,0.0,0.0,0.0,0
2015-02-28 00:57:53,0.0239091452481,0,0.5,0.0,0.0,0.0,0
2015-02-28 01:02:53,0.0430364614465,0,0.5,0.0,0.0,0.0,0
2015-02-28 01:07:53,0.0430364614465,0,0.5,0.0,0.0,0.0,0
2015-02-28 01:12:53,0.0382546323969,0,0.5,0.0,0.0,0.0,0
2015-02-28 01:17:53,0.0436341900777,0,0.5,0.0,0.0,0.0,0
2015-02-28 01:22:53,0.0412432755529,0,0.5,0.0,0.0,0.0,0
2015-02-28 01:27:53,0.0466228332337,0,0.5,0.0,0.0,0.0,0
2015-02-28 01:32:53,0.0346682606097,0,0.5,0.0,0.0,0.0,0
2015-02-28 01:37:53,0.0460251046025,0,0.5,0.0,0.0,0.0,0
2015-02-28 01:42:53,0.0794979079498,0,0.5,0.0,0.0,0.0,0
2015-02-28 01:47:53,0.0526001195457,0,0.5,0.0,0.0,0.0,0
2015-02-28 01:52:53,0.0520023909145,0,0.5,0.0,0.0,0.0,0
2015-02-28 01:57:53,0.0526001195457,0,0.5,0.0,0.0,0.0,0
2015-02-28 02:02:53,0.0466228332337,0,0.5,0.0,0.0,0.0,0
2015-02-28 02:07:53,0.0478182904961,0,0.5,0.0,0.0,0.0,0
2015-02-28 02:12:53,0.0430364614465,0,0.5,0.0,0.0,0.0,0
2015-02-28 02:17:53,0.0531978481769,0,0.5,0.0,0.0,0.0,0
2015-02-28 02:22:53,0.0370591751345,0,0.5,0.0,0.0,0.0,0
2015-02-28 02:27:53,0.0543933054393,0,0.5,0.0,0.0,0.0,0
2015-02-28 02:32:53,0.0597728631201,0,0.5,0.0,0.0,0.0,0
2015-02-28 02:37:53,0.0358637178721,0,0.5,0.0,0.0,0.0,0
2015-02-28 02:42:53,0.0322773460849,0,0.5,0.0,0.0,0.0,0
2015-02-28 02:47:53,0.0496114763897,0,0.5,0.0,0.0,0.0,0
2015-02-28 02:52:53,0.0268977884041,0,0.5,0.0,0.0,0.0,0
2015-02-28 02:57:53,0.0346682606097,0,0.5,0.0,0.0,0.0,0
2015-02-28 03:02:53,0.0418410041841,0,0.5,0.0,0.0,0.0,0
2015-02-28 03:07:53,0.0358637178721,0,0.5,0.0,0.0,0.0,0
2015-02-28 03:12:53,0.0245068738793,0,0.5,0.0,0.0,0.0,0
2015-02-28 03:17:53,0.0358637178721,0,0.5,0.0,0.0,0.0,0
2015-02-28 03:22:53,0.0340705319785,0,0.5,0.0,0.0,0.0,0
2015-02-28 03:27:53,0.0364614465033,0,0.5,0.0,0.0,0.0,0
2015-02-28 03:32:53,0.0394500896593,0,0.5,0.0,0.0,0.0,0
2015-02-28 03:37:53,0.0352659892409,0,0.5,0.0,0.0,0.0,0
2015-02-28 03:42:53,0.0382546323969,0,0.5,0.0,0.0,0.0,0
2015-02-28 03:47:53,0.0478182904961,0,0.5,0.0,0.0,0.0,0
2015-02-28 03:52:53,0.0549910340705,0,0.5,0.0,0.0,0.0,0
2015-02-28 03:57:53,0.0567842199641,0,0.5,0.0,0.0,0.0,0
2015-02-28 04:02:53,0.0603705917513,0,0.5,0.0,0.0,0.0,0
2015-02-28 04:07:53,0.0591751344889,0,0.5,0.0,0.0,0.0,0
2015-02-28 04:12:53,0.0406455469217,0,0.5,0.0,0.0,0.0,0
2015-02-28 04:17:53,0.0382546323969,0,0.5,0.0,0.0,0.0,0
2015-02-28 04:22:53,0.0537955768081,0,0.5,0.0,0.0,0.0,0
2015-02-28 04:27:53,0.0442319187089,0,0.5,0.0,0.0,0.0,0
2015-02-28 04:32:53,0.0286909742977,0,0.5,0.0,0.0,0.0,0
2015-02-28 04:37:53,0.0286909742977,0,0.5,0.0,0.0,0.0,0
2015-02-28 04:42:53,0.0376569037657,0,0.5,0.0,0.0,0.0,0
2015-02-28 04:47:53,0.0280932456665,0,0.5,0.0,0.0,0.0,0
2015-02-28 04:52:53,0.0257023311417,0,0.5,0.0,0.0,0.0,0
2015-02-28 04:57:53,0.0304841601913,0,0.5,0.0,0.0,0.0,0
2015-02-28 05:02:53,0.0376569037657,0,0.5,0.0,0.0,0.0,0
2015-02-28 05:07:53,0.0424387328153,0,0.5,0.0,0.0,0.0,0
2015-02-28 05:12:53,0.0502092050209,0,0.5,0.0,0.0,0.0,0
2015-02-28 05:17:53,0.0203227734608,0,0.5,0.0,0.0,0.0,0
2015-02-28 05:22:53,0.0245068738793,0,0.5,0.0,0.0,0.0,0
2015-02-28 05:27:53,0.0304841601913,0,0.5,0.0,0.0,0.0,0
2015-02-28 05:32:53,0.0263000597729,0,0.5,0.0,0.0,0.0,0
2015-02-28 05:37:53,0.0346682606097,0,0.5,0.0,0.0,0.0,0
2015-02-28 05:42:53,0.0406455469217,0,0.5,0.0,0.0,0.0,0
2015-02-28 05:47:53,0.0340705319785,0,0.5,0.0,0.0,0.0,0
2015-02-28 05:52:53,0.0328750747161,0,0.5,0.0,0.0,0.0,0
2015-02-28 05:57:53,0.0388523610281,0,0.5,0.0,0.0,0.0,0
2015-02-28 06:02:53,0.0304841601913,0,0.660506712032,0.0,0.0,0.0,0
2015-02-28 06:07:53,0.0292887029289,0,0.641354293615,0.0,0.0,0.0,0
2015-02-28 06:12:53,0.0352659892409,0,0.617897212194,0.0,0.0,0.0,0
2015-02-28 06:17:53,0.0263000597729,0,0.627076364821,0.0,0.0,0.0,0
2015-02-28 06:22:53,0.0346682606097,0,0.608651306873,0.0,0.0,0.0,0
2015-02-28 06:27:53,0.0268977884041,0,0.625769328699,0.0,0.0,0.0,0
2015-02-28 06:32:53,0.0310818888225,0,0.6464988791,0.0,0.0,0.0,0
2015-02-28 06:37:53,0.0298864315601,0,0.655437337462,0.0,0.0,0.0,0
2015-02-28 06:42:53,0.0376569037657,0,0.645215195934,0.0,0.0,0.0,0
2015-02-28 06:47:53,0.0268977884041,0,0.670558039303,0.0,0.0,0.0,0
2015-02-28 06:52:53,0.0322773460849,0,0.666802728774,0.0,0.0,0.0,0
2015-02-28 06:57:53,0.0406455469217,0,0.64264288996,0.0,0.0,0.0,0
2015-02-28 07:02:53,0.0268977884041,0,0.646063071241,0.0,0.0,0.0,0
2015-02-28 07:07:53,0.0239091452481,0,0.65118332555,0.0,0.0,0.0,0
2015-02-28 07:12:53,0.0322773460849,0,0.656276193242,0.0,0.0,0.0,0
2015-02-28 07:17:53,0.0197250448296,0,0.671382366451,0.0,0.0,0.0,0
2015-02-28 07:22:53,0.0227136879857,0,0.688657223845,0.0,0.0,0.0,0
2015-02-28 07:27:53,0.0197250448296,0,0.709085523586,0.0,0.0,0.0,0
2015-02-28 07:32:53,0.0310818888225,0,0.721960809638,0.0,0.0,0.0,0
2015-02-28 07:37:53,0.0215182307233,0,0.732284055229,0.0,0.0,0.0,0
2015-02-28 07:42:53,0.0215182307233,0,0.7523343478,0.0,0.0,0.0,0
2015-02-28 07:47:53,0.0209205020921,0,0.786907729238,0.0,0.0,0.0,0
2015-02-28 07:52:53,0.017931858936,0,0.801642580786,0.0,0.0,0.0,0
2015-02-28 07:57:53,0.01494321578,0,0.815745108893,0.0,0.0,0.0,0
2015-02-28 08:02:53,0.0143454871488,0,0.84202105066,0.0,0.0,0.0,0
2015-02-28 08:07:53,0.0161386730424,0,0.846965438054,0.0,0.0,0.0,0
2015-02-28 08:12:53,0.0125523012552,0,0.860412031489,0.0,0.0,0.0,0
2015-02-28 08:17:53,0.0268977884041,0,0.851006556409,0.0,0.0,0.0,0
2015-02-28 08:22:53,0.0161386730424,0,0.870136297152,0.0,0.0,0.0,0
2015-02-28 08:27:53,0.0185295875672,0,0.873748463281,0.0,0.0,0.0,0
2015-02-28 08:32:53,0.0209205020921,0,0.874462411452,0.0,0.0,0.0,0
2015-02-28 08:37:53,0.0346682606097,0,0.857322794812,0.0,0.0,0.0,0
2015-02-28 08:42:53,0.0358637178721,0,0.832686938011,0.0,0.0,0.0,0
2015-02-28 08:47:53,0.0221159593545,0,0.8221072252,0.0,0.0,0.0,0
2015-02-28 08:52:53,0.017931858936,0,0.816662553193,0.0,0.0,0.0,0
2015-02-28 08:57:53,0.0215182307233,0,0.808303084922,0.0,0.0,0.0,0
2015-02-28 09:02:53,0.0233114166169,0,0.790898194722,0.0,0.0,0.0,0
2015-02-28 09:07:53,0.0155409444112,0,0.809243278255,0.0,0.0,0.0,0
2015-02-28 09:12:53,0.0227136879857,0,0.798745841647,0.0,0.0,0.0,0
2015-02-28 09:17:53,0.0185295875672,0,0.798745841647,0.0,0.0,0.0,0
2015-02-28 09:22:53,0.0346682606097,0,0.775707577816,0.0,0.0,0.0,0
2015-02-28 09:27:53,0.0334728033473,0,0.777768481,0.0,0.0,0.0,0
2015-02-28 09:32:53,0.0382546323969,0,0.773635867493,0.0,0.0,0.0,0
2015-02-28 09:37:53,0.0263000597729,0,0.766300400524,0.0,0.0,0.0,0
2015-02-28 09:42:53,0.0346682606097,0,0.735681703744,0.0,0.0,0.0,0
2015-02-28 09:47:53,0.0376569037657,0,0.704335479016,0.0,0.0,0.0,0
2015-02-28 09:52:53,0.0346682606097,0,0.6813016202,0.0,0.0,0.0,0
2015-02-28 09:57:53,0.0280932456665,0,0.655005588844,0.0,0.0,0.0,0
2015-02-28 10:02:53,0.0280932456665,0,0.643492934018,0.0,0.0,0.0,0
2015-02-28 10:07:53,0.0280932456665,0,0.622705701457,0.0,0.0,0.0,0
2015-02-28 10:12:53,0.0215182307233,0,0.65118332555,0.0,0.0,0.0,0
2015-02-28 10:17:53,0.0185295875672,0,0.682532630134,0.0,0.0,0.0,0
2015-02-28 10:22:53,0.017931858936,0,0.723117362673,0.0,0.0,0.0,0
2015-02-28 10:27:53,0.0125523012552,0,0.749049253741,0.0,0.0,0.0,0
2015-02-28 10:32:53,0.0137477585176,0,0.785903215316,0.0,0.0,0.0,0
2015-02-28 10:37:53,0.0257023311417,0,0.805465521122,0.0,0.0,0.0,0
2015-02-28 10:42:53,0.0257023311417,0,0.819397756237,0.0,0.0,0.0,0
2015-02-28 10:47:53,0.0316796174537,0,0.813901667592,0.0,0.0,0.0,0
2015-02-28 10:52:53,0.0322773460849,0,0.807360059122,0.0,0.0,0.0,0
2015-02-28 10:57:53,0.0268977884041,0,0.809243278255,0.0,0.0,0.0,0
2015-02-28 11:02:53,0.0221159593545,0,0.808303084922,0.0,0.0,0.0,0
2015-02-28 11:07:53,0.0209205020921,0,0.804514014613,0.0,0.0,0.0,0
2015-02-28 11:12:53,0.0257023311417,0,0.791888892406,0.0,0.0,0.0,0
2015-02-28 11:17:53,0.0257023311417,0,0.769460196821,0.0,0.0,0.0,0
2015-02-28 11:22:53,0.0257023311417,0,0.747949119972,0.0,0.0,0.0,0
2015-02-28 11:27:53,0.0239091452481,0,0.751241874763,0.0,0.0,0.0,0
2015-02-28 11:32:53,0.0167364016736,0,0.767356325292,0.0,0.0,0.0,0
2015-02-28 11:37:53,0.01494321578,0,0.795823887392,0.0,0.0,0.0,0
2015-02-28 11:42:53,0.0185295875672,0,0.817577143826,0.0,0.0,0.0,0
2015-02-28 11:47:53,0.0137477585176,0,0.83697292806,0.0,0.0,0.0,0
2015-02-28 11:52:53,0.0185295875672,0,0.84202105066,0.0,0.0,0.0,0
2015-02-28 11:57:53,0.0185295875672,0,0.845328833411,0.0,0.0,0.0,0
2015-02-28 12:02:53,0.0215182307233,0,0.851006556409,0.0,0.0,0.0,0
2015-02-28 12:07:53,0.0274955170353,0,0.848590522058,0.0,0.0,0.0,0
2015-02-28 12:12:53,0.0280932456665,0,0.845328833411,0.0,0.0,0.0,0
2015-02-28 12:17:53,0.0191273161984,0,0.85180614613,0.0,0.0,0.0,0
2015-02-28 12:22:53,0.0233114166169,0,0.842852318637,0.0,0.0,0.0,0
2015-02-28 12:27:53,0.0251046025105,0,0.828328997713,0.0,0.0,0.0,0
2015-02-28 12:32:53,0.0274955170353,0,0.814824812982,0.0,0.0,0.0,0
2015-02-28 12:37:53,0.0239091452481,0,0.798745841647,0.0,0.0,0.0,0
2015-02-28 12:42:53,0.0358637178721,0,0.769460196821,0.0,0.0,0.0,0
2015-02-28 12:47:53,0.0418410041841,0,0.726572820643,0.0,0.0,0.0,0
2015-02-28 12:52:53,0.0424387328153,0,0.684988592549,0.0,0.0,0.0,0
2015-02-28 12:57:53,0.0412432755529,0,0.656276193242,0.0,0.0,0.0,0
2015-02-28 13:02:53,0.0334728033473,0,0.644778825865,0.0,0.0,0.0,0
2015-02-28 13:07:53,0.0418410041841,0,0.594882652753,0.0,0.0,0.0,0
2015-02-28 13:12:53,0.0526001195457,0,0.528310371836,0.0,0.0,0.0,0
2015-02-28 13:17:53,0.0298864315601,0,0.517314669996,0.0,0.0,0.0,0
2015-02-28 13:22:53,0.0316796174537,0,0.507682327431,0.0,0.0,0.0,0
2015-02-28 13:27:53,0.0257023311417,0,0.503552480828,0.0,0.0,0.0,0
2015-02-28 13:32:53,0.0316796174537,0,0.513187432403,0.0,0.0,0.0,0
2015-02-28 13:37:53,0.0257023311417,0,0.550228858818,0.0,0.0,0.0,0
2015-02-28 13:42:53,0.0352659892409,0,0.566571403341,0.0,0.0,0.0,0
2015-02-28 13:47:53,0.0298864315601,0,0.592205188925,0.0,0.0,0.0,0
2015-02-28 13:52:53,0.0245068738793,0,0.612172774167,0.0,0.0,0.0,0
2015-02-28 13:57:53,0.0239091452481,0,0.65118332555,0.0,0.0,0.0,0
2015-02-28 14:02:53,0.0257023311417,0,0.706714958507,0.0,0.0,0.0,0
2015-02-28 14:07:53,0.0454273759713,0,0.675116740429,0.0,0.0,0.0,0
2015-02-28 14:12:53,0.0370591751345,0,0.663862358171,0.0,0.0,0.0,0
2015-02-28 14:17:53,0.0364614465033,0,0.640916263861,0.0,0.0,0.0,0
2015-02-28 14:22:53,0.0263000597729,0,0.652459142205,0.0,0.0,0.0,0
2015-02-28 14:27:53,0.0292887029289,0,0.644778825865,0.0,0.0,0.0,0
2015-02-28 14:32:53,0.0406455469217,0,0.633148124666,0.0,0.0,0.0,0
2015-02-28 14:37:53,0.0292887029289,0,0.634446707618,0.0,0.0,0.0,0
2015-02-28 14:42:53,0.0472205618649,0,0.584147401819,0.0,0.0,0.0,0
2015-02-28 14:47:53,0.0424387328153,0,0.542023736877,0.0,0.0,0.0,0
2015-02-28 14:52:53,0.0310818888225,0,0.52968349098,0.0,0.0,0.0,0
2015-02-28 14:57:53,0.0280932456665,0,0.569284901794,0.0,0.0,0.0,0
2015-02-28 15:02:53,0.0245068738793,0,0.597555682803,0.0,0.0,0.0,0
2015-02-28 15:07:53,0.0370591751345,0,0.596219729501,0.0,0.0,0.0,0
2015-02-28 15:12:53,0.0376569037657,0,0.570640433652,0.0,0.0,0.0,0
2015-02-28 15:17:53,0.0508069336521,0,0.521440052916,0.0,0.0,0.0,0
2015-02-28 15:22:53,0.0615660490137,0,0.641135071638,0.0,0.0,0.0,0
2015-02-28 15:27:53,0.0418410041841,0,0.667843392827,0.0,0.0,0.0,0
2015-02-28 15:32:53,0.0412432755529,0,0.655221261424,0.0,0.0,0.0,0
2015-02-28 15:37:53,0.0508069336521,0,0.672840390584,0.0,0.0,0.0,0
2015-02-28 15:42:53,0.0394500896593,0,0.690082518974,0.0,0.0,0.0,0
2015-02-28 15:47:53,0.0448296473401,0,0.723313329649,0.0,0.0,0.0,0
2015-02-28 15:52:53,0.0502092050209,0,0.770685641532,0.0,0.0,0.0,0
2015-02-28 15:57:53,0.0549910340705,0,0.800843333796,0.0,0.0,0.0,0
2015-02-28 16:02:53,0.0418410041841,0,0.807520236093,0.0,0.0,0.0,0
2015-02-28 16:07:53,0.0370591751345,0,0.785067019794,0.0,0.0,0.0,0