timestamp,value,is_anomaly,anomaly_score
2015-02-26 21:42:53,0.0421303656598,0,0.5
2015-02-26 21:47:53,0.0508744038156,0,0.5
2015-02-26 21:52:53,0.0389507154213,0,0.5
2015-02-26 21:57:53,0.0381558028617,0,0.5
2015-02-26 22:02:53,0.0174880763116,0,0.5
2015-02-26 22:07:53,0.0182829888712,0,0.5
2015-02-26 22:12:53,0.0135135135135,0,0.5
2015-02-26 22:17:53,0.0278219395866,0,0.5
2015-02-26 22:22:53,0.0182829888712,0,0.5
2015-02-26 22:27:53,0.0310015898251,0,0.5
2015-02-26 22:32:53,0.0206677265501,0,0.5
2015-02-26 22:37:53,0.0262321144674,0,0.5
2015-02-26 22:42:53,0.0405405405405,0,0.5
2015-02-26 22:47:53,0.0325914149444,0,0.5
2015-02-26 22:52:53,0.027027027027,0,0.5
2015-02-26 22:57:53,0.0302066772655,0,0.5
2015-02-26 23:02:53,0.0357710651828,0,0.5
2015-02-26 23:07:53,0.033386327504,0,0.5
2015-02-26 23:12:53,0.0310015898251,0,0.5
2015-02-26 23:17:53,0.0317965023847,0,0.5
2015-02-26 23:22:53,0.0190779014308,0,0.5
2015-02-26 23:27:53,0.0286168521463,0,0.5
2015-02-26 23:32:53,0.0143084260731,0,0.5
2015-02-26 23:37:53,0.0198728139905,0,0.5
2015-02-26 23:42:53,0.016693163752,0,0.5
2015-02-26 23:47:53,0.010333863275,0,0.5
2015-02-26 23:52:53,0.00556438791733,0,0.5
2015-02-26 23:57:53,0.0143084260731,0,0.5
2015-02-27 00:02:53,0.0143084260731,0,0.5
2015-02-27 00:07:53,0.0222575516693,0,0.5
2015-02-27 00:12:53,0.0111287758347,0,0.5
2015-02-27 00:17:53,0.0198728139905,0,0.5
2015-02-27 00:22:53,0.0206677265501,0,0.5
2015-02-27 00:27:53,0.0119236883943,0,0.5
2015-02-27 00:32:53,0.0127186009539,0,0.5
2015-02-27 00:37:53,0.0158982511924,0,0.5
2015-02-27 00:42:53,0.010333863275,0,0.5
2015-02-27 00:47:53,0.0151033386328,0,0.5
2015-02-27 00:52:53,0.010333863275,0,0.5
2015-02-27 00:57:53,0.0135135135135,0,0.5
2015-02-27 01:02:53,0.0111287758347,0,0.5
2015-02-27 01:07:53,0.0190779014308,0,0.5
2015-02-27 01:12:53,0.0151033386328,0,0.5
2015-02-27 01:17:53,0.00635930047695,0,0.5
2015-02-27 01:22:53,0.00794912559618,0,0.5
2015-02-27 01:27:53,0.00715421303657,0,0.5
2015-02-27 01:32:53,0.0135135135135,0,0.5
2015-02-27 01:37:53,0.00715421303657,0,0.5
2015-02-27 01:42:53,0.0127186009539,0,0.5
2015-02-27 01:47:53,0.0135135135135,0,0.5
2015-02-27 01:52:53,0.0135135135135,0,0.5
2015-02-27 01:57:53,0.0174880763116,0,0.5
2015-02-27 02:02:53,0.010333863275,0,0.5
2015-02-27 02:07:53,0.010333863275,0,0.5
2015-02-27 02:12:53,0.0119236883943,0,0.5
2015-02-27 02:17:53,0.00556438791733,0,0.5
2015-02-27 02:22:53,0.0230524642289,0,0.5
2015-02-27 02:27:53,0.0492845786963,0,0.5
2015-02-27 02:32:53,0.0206677265501,0,0.5
2015-02-27 02:37:53,0.0222575516693,0,0.5
2015-02-27 02:42:53,0.0675675675676,0,0.5
2015-02-27 02:47:53,0.0556438791733,0,0.5
2015-02-27 02:52:53,0.0286168521463,0,0.5
2015-02-27 02:57:53,0.0310015898251,0,0.5
2015-02-27 03:02:53,0.0222575516693,0,0.5
2015-02-27 03:07:53,0.0317965023847,0,0.5
2015-02-27 03:12:53,0.139904610493,0,0.5
2015-02-27 03:17:53,0.162957074722,0,0.5
2015-02-27 03:22:53,0.130365659777,0,0.5
2015-02-27 03:27:53,0.0922098569157,0,0.5
2015-02-27 03:32:53,0.0111287758347,0,0.5
2015-02-27 03:37:53,0.0182829888712,0,0.5
2015-02-27 03:42:53,0.0143084260731,0,0.5
2015-02-27 03:47:53,0.0135135135135,0,0.5
2015-02-27 03:52:53,0.0143084260731,0,0.5
2015-02-27 03:57:53,0.0151033386328,0,0.5
2015-02-27 04:02:53,0.0143084260731,0,0.5
2015-02-27 04:07:53,0.016693163752,0,0.5
2015-02-27 04:12:53,0.016693163752,0,0.5
2015-02-27 04:17:53,0.0119236883943,0,0.5
2015-02-27 04:22:53,0.0087440381558,0,0.5
2015-02-27 04:27:53,0.0174880763116,0,0.5
2015-02-27 04:32:53,0.010333863275,0,0.5
2015-02-27 04:37:53,0.00397456279809,0,0.5
2015-02-27 04:42:53,0.0143084260731,0,0.5
2015-02-27 04:47:53,0.0127186009539,0,0.5
2015-02-27 04:52:53,0.0111287758347,0,0.5
2015-02-27 04:57:53,0.0151033386328,0,0.5
2015-02-27 05:02:53,0.0111287758347,0,0.5
2015-02-27 05:07:53,0.00556438791733,0,0.5
2015-02-27 05:12:53,0.0135135135135,0,0.5
2015-02-27 05:17:53,0.00794912559618,0,0.5
2015-02-27 05:22:53,0.00953895071542,0,0.5
2015-02-27 05:27:53,0.0182829888712,0,0.5
2015-02-27 05:32:53,0.0087440381558,0,0.5
2015-02-27 05:37:53,0.0127186009539,0,0.5
2015-02-27 05:42:53,0.00635930047695,0,0.5
2015-02-27 05:47:53,0.0111287758347,0,0.5
2015-02-27 05:52:53,0.0087440381558,0,0.5
2015-02-27 05:57:53,0.00715421303657,0,0.5
2015-02-27 06:02:53,0.00476947535771,0,0.5
2015-02-27 06:07:53,0.00953895071542,0,0.5
2015-02-27 06:12:53,0.0158982511924,0,0.5
2015-02-27 06:17:53,0.00397456279809,0,0.5
2015-02-27 06:22:53,0.00635930047695,0,0.5
2015-02-27 06:27:53,0.0087440381558,0,0.5
2015-02-27 06:32:53,0.0111287758347,0,0.5
2015-02-27 06:37:53,0.00635930047695,0,0.5
2015-02-27 06:42:53,0.00635930047695,0,0.5
2015-02-27 06:47:53,0.010333863275,0,0.5
2015-02-27 06:52:53,0.010333863275,0,0.5
2015-02-27 06:57:53,0.00953895071542,0,0.5
2015-02-27 07:02:53,0.00556438791733,0,0.5
2015-02-27 07:07:53,0.0135135135135,0,0.5
2015-02-27 07:12:53,0.0143084260731,0,0.5
2015-02-27 07:17:53,0.0127186009539,0,0.5
2015-02-27 07:22:53,0.0087440381558,0,0.5
2015-02-27 07:27:53,0.00794912559618,0,0.5
2015-02-27 07:32:53,0.00556438791733,0,0.5
2015-02-27 07:37:53,0.0087440381558,0,0.5
2015-02-27 07:42:53,0.00476947535771,0,0.5
2015-02-27 07:47:53,0.00953895071542,0,0.5
2015-02-27 07:52:53,0.00476947535771,0,0.5
2015-02-27 07:57:53,0.010333863275,0,0.5
2015-02-27 08:02:53,0.0198728139905,0,0.5
2015-02-27 08:07:53,0.00953895071542,0,0.5
2015-02-27 08:12:53,0.00556438791733,0,0.5
2015-02-27 08:17:53,0.010333863275,0,0.5
2015-02-27 08:22:53,0.00397456279809,0,0.5
2015-02-27 08:27:53,0.00635930047695,0,0.5
2015-02-27 08:32:53,0.00794912559618,0,0.5
2015-02-27 08:37:53,0.00635930047695,0,0.5
2015-02-27 08:42:53,0.00794912559618,0,0.5
2015-02-27 08:47:53,0.00556438791733,0,0.5
2015-02-27 08:52:53,0.00476947535771,0,0.5
2015-02-27 08:57:53,0.0135135135135,0,0.5
2015-02-27 09:02:53,0.0143084260731,0,0.5
2015-02-27 09:07:53,0.00635930047695,0,0.5
2015-02-27 09:12:53,0.0087440381558,0,0.5
2015-02-27 09:17:53,0.00794912559618,0,0.5
2015-02-27 09:22:53,0.0111287758347,0,0.5
2015-02-27 09:27:53,0.0087440381558,0,0.5
2015-02-27 09:32:53,0.0127186009539,0,0.5
2015-02-27 09:37:53,0.00794912559618,0,0.5
2015-02-27 09:42:53,0.00635930047695,0,0.5
2015-02-27 09:47:53,0.00715421303657,0,0.5
2015-02-27 09:52:53,0.00635930047695,0,0.5
2015-02-27 09:57:53,0.0111287758347,0,0.5
2015-02-27 10:02:53,0.0119236883943,0,0.5
2015-02-27 10:07:53,0.00715421303657,0,0.5
2015-02-27 10:12:53,0.010333863275,0,0.5
2015-02-27 10:17:53,0.0174880763116,0,0.5
2015-02-27 10:22:53,0.00635930047695,0,0.5
2015-02-27 10:27:53,0.0087440381558,0,0.5
2015-02-27 10:32:53,0.0135135135135,0,0.5
2015-02-27 10:37:53,0.00556438791733,0,0.5
2015-02-27 10:42:53,0.0087440381558,0,0.5
2015-02-27 10:47:53,0.00794912559618,0,0.5
2015-02-27 10:52:53,0.010333863275,0,0.5
2015-02-27 10:57:53,0.0111287758347,0,0.5
2015-02-27 11:02:53,0.0119236883943,0,0.5
2015-02-27 11:07:53,0.010333863275,0,0.5
2015-02-27 11:12:53,0.010333863275,0,0.5
2015-02-27 11:17:53,0.00715421303657,0,0.5
2015-02-27 11:22:53,0.00953895071542,0,0.5
2015-02-27 11:27:53,0.0151033386328,0,0.5
2015-02-27 11:32:53,0.0151033386328,0,0.5
2015-02-27 11:37:53,0.0214626391097,0,0.5
2015-02-27 11:42:53,0.0222575516693,0,0.5
2015-02-27 11:47:53,0.0198728139905,0,0.5
2015-02-27 11:52:53,0.0135135135135,0,0.5
2015-02-27 11:57:53,0.0135135135135,0,0.5
2015-02-27 12:02:53,0.00953895071542,0,0.5
2015-02-27 12:07:53,0.0111287758347,0,0.5
2015-02-27 12:12:53,0.0127186009539,0,0.5
2015-02-27 12:17:53,0.0119236883943,0,0.5
2015-02-27 12:22:53,0.0119236883943,0,0.5
2015-02-27 12:27:53,0.0127186009539,0,0.5
2015-02-27 12:32:53,0.00794912559618,0,0.5
2015-02-27 12:37:53,0.0135135135135,0,0.5
2015-02-27 12:42:53,0.0119236883943,0,0.5
2015-02-27 12:47:53,0.0111287758347,0,0.5
2015-02-27 12:52:53,0.0143084260731,0,0.5
2015-02-27 12:57:53,0.0135135135135,0,0.5
2015-02-27 13:02:53,0.0135135135135,0,0.5
2015-02-27 13:07:53,0.0198728139905,0,0.5
2015-02-27 13:12:53,0.0222575516693,0,0.5
2015-02-27 13:17:53,0.0294117647059,0,0.5
2015-02-27 13:22:53,0.0246422893482,0,0.5
2015-02-27 13:27:53,0.0222575516693,0,0.5
2015-02-27 13:32:53,0.016693163752,0,0.5
2015-02-27 13:37:53,0.0198728139905,0,0.5
2015-02-27 13:42:53,0.0190779014308,0,0.5
2015-02-27 13:47:53,0.0206677265501,0,0.5
2015-02-27 13:52:53,0.00794912559618,0,0.5
2015-02-27 13:57:53,0.0151033386328,0,0.5
2015-02-27 14:02:53,0.00953895071542,0,0.5
2015-02-27 14:07:53,0.0135135135135,0,0.5
2015-02-27 14:12:53,0.0135135135135,0,0.5
2015-02-27 14:17:53,0.016693163752,0,0.5
2015-02-27 14:22:53,0.0214626391097,0,0.5
2015-02-27 14:27:53,0.0182829888712,0,0.5
2015-02-27 14:32:53,0.0182829888712,0,0.5
2015-02-27 14:37:53,0.0262321144674,0,0.5
2015-02-27 14:42:53,0.0230524642289,0,0.5
2015-02-27 14:47:53,0.016693163752,0,0.5
2015-02-27 14:52:53,0.0294117647059,0,0.5
2015-02-27 14:57:53,0.0198728139905,0,0.5
2015-02-27 15:02:53,0.0262321144674,0,0.5
2015-02-27 15:07:53,0.0222575516693,0,0.5
2015-02-27 15:12:53,0.0302066772655,0,0.5
2015-02-27 15:17:53,0.016693163752,0,0.5
2015-02-27 15:22:53,0.0182829888712,0,0.5
2015-02-27 15:27:53,0.0190779014308,0,0.5
2015-02-27 15:32:53,0.0151033386328,0,0.5
2015-02-27 15:37:53,0.0158982511924,0,0.5
2015-02-27 15:42:53,0.0198728139905,0,0.5
2015-02-27 15:47:53,0.0158982511924,0,0.5
2015-02-27 15:52:53,0.0238473767886,0,0.5
2015-02-27 15:57:53,0.033386327504,0,0.5
2015-02-27 16:02:53,0.0286168521463,0,0.5
2015-02-27 16:07:53,0.0246422893482,0,0.5
2015-02-27 16:12:53,0.0230524642289,0,0.5
2015-02-27 16:17:53,0.027027027027,0,0.5
2015-02-27 16:22:53,0.0206677265501,0,0.5
2015-02-27 16:27:53,0.0158982511924,0,0.5
2015-02-27 16:32:53,0.0174880763116,0,0.5
2015-02-27 16:37:53,0.016693163752,0,0.5
2015-02-27 16:42:53,0.0158982511924,0,0.5
2015-02-27 16:47:53,0.0158982511924,0,0.5
2015-02-27 16:52:53,0.0174880763116,0,0.5
2015-02-27 16:57:53,0.0612082670906,0,0.5
2015-02-27 17:02:53,0.0397456279809,0,0.5
2015-02-27 17:07:53,0.0294117647059,0,0.5
2015-02-27 17:12:53,0.0158982511924,0,0.5
2015-02-27 17:17:53,0.0214626391097,0,0.5
2015-02-27 17:22:53,0.0158982511924,0,0.5
2015-02-27 17:27:53,0.0317965023847,0,0.5
2015-02-27 17:32:53,0.0222575516693,0,0.5
2015-02-27 17:37:53,0.0246422893482,0,0.5
2015-02-27 17:42:53,0.0206677265501,0,0.5
2015-02-27 17:47:53,0.0230524642289,0,0.5
2015-02-27 17:52:53,0.0127186009539,0,0.5
2015-02-27 17:57:53,0.0325914149444,0,0.5
2015-02-27 18:02:53,0.0230524642289,0,0.5
2015-02-27 18:07:53,0.0174880763116,0,0.5
2015-02-27 18:12:53,0.0135135135135,0,0.5
2015-02-27 18:17:53,0.0190779014308,0,0.5
2015-02-27 18:22:53,0.0198728139905,0,0.5
2015-02-27 18:27:53,0.0151033386328,0,0.5
2015-02-27 18:32:53,0.171701112878,0,0.5
2015-02-27 18:37:53,0.259141494436,0,0.5
2015-02-27 18:42:53,0.0993640699523,0,0.5
2015-02-27 18:47:53,0.087440381558,0,0.5
2015-02-27 18:52:53,0.0675675675676,0,0.5
2015-02-27 18:57:53,0.0794912559618,0,0.5
2015-02-27 19:02:53,0.0643879173291,0,0.5
2015-02-27 19:07:53,0.0596184419714,0,0.5
2015-02-27 19:12:53,0.0739268680445,0,0.5
2015-02-27 19:17:53,0.0596184419714,0,0.5
2015-02-27 19:22:53,0.050079491256,0,0.5
2015-02-27 19:27:53,0.0564387917329,0,0.5
2015-02-27 19:32:53,0.0627980922099,0,0.5
2015-02-27 19:37:53,0.0675675675676,0,0.5
2015-02-27 19:42:53,0.0572337042925,0,0.5
2015-02-27 19:47:53,0.0484896661367,0,0.5
2015-02-27 19:52:53,0.0572337042925,0,0.5
2015-02-27 19:57:53,0.255961844197,0,0.5
2015-02-27 20:02:53,0.170111287758,0,0.5
2015-02-27 20:07:53,0.132750397456,0,0.5
2015-02-27 20:12:53,0.10333863275,0,0.5
2015-02-27 20:17:53,0.118441971383,0,0.5
2015-02-27 20:22:53,0.110492845787,0,0.5
2015-02-27 20:27:53,0.077106518283,0,0.5
2015-02-27 20:32:53,0.0667726550079,0,0.5
2015-02-27 20:37:53,0.0453100158983,0,0.5
2015-02-27 20:42:53,0.0492845786963,0,0.5
2015-02-27 20:47:53,0.0588235294118,0,0.5
2015-02-27 20:52:53,0.0572337042925,0,0.5
2015-02-27 20:57:53,0.0476947535771,0,0.5
2015-02-27 21:02:53,0.0492845786963,0,0.5
2015-02-27 21:07:53,0.0588235294118,0,0.5
2015-02-27 21:12:53,0.0588235294118,0,0.5
2015-02-27 21:17:53,0.0532591414944,0,0.5
2015-02-27 21:22:53,0.0453100158983,0,0.5
2015-02-27 21:27:53,0.0413354531002,0,0.5
2015-02-27 21:32:53,0.0468998410175,0,0.5
2015-02-27 21:37:53,0.0413354531002,0,0.5
2015-02-27 21:42:53,0.0659777424483,0,0.5
2015-02-27 21:47:53,0.0731319554849,0,0.5
2015-02-27 21:52:53,0.0627980922099,0,0.5
2015-02-27 21:57:53,0.0627980922099,0,0.5
2015-02-27 22:02:53,0.0667726550079,0,0.5
2015-02-27 22:07:53,0.0755166931638,0,0.5
2015-02-27 22:12:53,0.0627980922099,0,0.5
2015-02-27 22:17:53,0.0564387917329,0,0.5
2015-02-27 22:22:53,0.0540540540541,0,0.5
2015-02-27 22:27:53,0.0532591414944,0,0.5
2015-02-27 22:32:53,0.0492845786963,0,0.5
2015-02-27 22:37:53,0.0612082670906,0,0.5
2015-02-27 22:42:53,0.0508744038156,0,0.5
2015-02-27 22:47:53,0.0461049284579,0,0.5
2015-02-27 22:52:53,0.0453100158983,0,0.5
2015-02-27 22:57:53,0.12480127186,0,0.5
2015-02-27 23:02:53,0.0596184419714,0,0.5
2015-02-27 23:07:53,0.0572337042925,0,0.5
2015-02-27 23:12:53,0.0421303656598,0,0.5
2015-02-27 23:17:53,0.0413354531002,0,0.5
2015-02-27 23:22:53,0.0461049284579,0,0.5
2015-02-27 23:27:53,0.0429252782194,0,0.5
2015-02-27 23:32:53,0.0516693163752,0,0.5
2015-02-27 23:37:53,0.0588235294118,0,0.5
2015-02-27 23:42:53,0.0349761526232,0,0.5
2015-02-27 23:47:53,0.0643879173291,0,0.5
2015-02-27 23:52:53,0.0405405405405,0,0.5
2015-02-27 23:57:53,0.0635930047695,0,0.5
2015-02-28 00:02:53,0.0612082670906,0,0.5
2015-02-28 00:07:53,0.0405405405405,0,0.5
2015-02-28 00:12:53,0.0453100158983,0,0.5
2015-02-28 00:17:53,0.0349761526232,0,0.5
2015-02-28 00:22:53,0.0532591414944,0,0.5
2015-02-28 00:27:53,0.0612082670906,0,0.5
2015-02-28 00:32:53,0.0429252782194,0,0.5
2015-02-28 00:37:53,0.0429252782194,0,0.5
2015-02-28 00:42:53,0.0524642289348,0,0.5
2015-02-28 00:47:53,0.0429252782194,0,0.5
2015-02-28 00:52:53,0.0413354531002,0,0.5
2015-02-28 00:57:53,0.0556438791733,0,0.5
2015-02-28 01:02:53,0.050079491256,0,0.5
2015-02-28 01:07:53,0.0349761526232,0,0.5
2015-02-28 01:12:53,0.0468998410175,0,0.5
2015-02-28 01:17:53,0.0476947535771,0,0.5
2015-02-28 01:22:53,0.050079491256,0,0.5
2015-02-28 01:27:53,0.0492845786963,0,0.5
2015-02-28 01:32:53,0.0413354531002,0,0.5
2015-02-28 01:37:53,0.0262321144674,0,0.5
2015-02-28 01:42:53,0.0524642289348,0,0.5
2015-02-28 01:47:53,0.050079491256,0,0.5
2015-02-28 01:52:53,0.0532591414944,0,0.5
2015-02-28 01:57:53,0.0492845786963,0,0.5
2015-02-28 02:02:53,0.0445151033386,0,0.5
2015-02-28 02:07:53,0.0445151033386,0,0.5
2015-02-28 02:12:53,0.0453100158983,0,0.5
2015-02-28 02:17:53,0.0548489666137,0,0.5
2015-02-28 02:22:53,0.0389507154213,0,0.5
2015-02-28 02:27:53,0.0365659777424,0,0.5
2015-02-28 02:32:53,0.0564387917329,0,0.5
2015-02-28 02:37:53,0.0532591414944,0,0.5
2015-02-28 02:42:53,0.060413354531,0,0.5
2015-02-28 02:47:53,0.0524642289348,0,0.5
2015-02-28 02:52:53,0.0532591414944,0,0.5
2015-02-28 02:57:53,0.0468998410175,0,0.5
2015-02-28 03:02:53,0.0461049284579,0,0.5
2015-02-28 03:07:53,0.0365659777424,0,0.5
2015-02-28 03:12:53,0.0572337042925,0,0.5
2015-02-28 03:17:53,0.0413354531002,0,0.5
2015-02-28 03:22:53,0.0421303656598,0,0.5
2015-02-28 03:27:53,0.0532591414944,0,0.5
2015-02-28 03:32:53,0.0508744038156,0,0.5
2015-02-28 03:37:53,0.0373608903021,0,0.5
2015-02-28 03:42:53,0.0349761526232,0,0.5
2015-02-28 03:47:53,0.0421303656598,0,0.5
2015-02-28 03:52:53,0.0484896661367,0,0.5
2015-02-28 03:57:53,0.0429252782194,0,0.5
2015-02-28 04:02:53,0.0413354531002,0,0.5
2015-02-28 04:07:53,0.0516693163752,0,0.5
2015-02-28 04:12:53,0.0405405405405,0,0.5
2015-02-28 04:17:53,0.0461049284579,0,0.5
2015-02-28 04:22:53,0.0413354531002,0,0.5
2015-02-28 04:27:53,0.0429252782194,0,0.5
2015-02-28 04:32:53,0.0468998410175,0,0.5
2015-02-28 04:37:53,0.0476947535771,0,0.5
2015-02-28 04:42:53,0.0445151033386,0,0.5
2015-02-28 04:47:53,0.0572337042925,0,0.5
2015-02-28 04:52:53,0.0381558028617,0,0.5
2015-02-28 04:57:53,0.043720190779,0,0.5
2015-02-28 05:02:53,0.0508744038156,0,0.5
2015-02-28 05:07:53,0.0532591414944,0,0.5
2015-02-28 05:12:53,0.0405405405405,0,0.5
2015-02-28 05:17:53,0.00476947535771,0,0.5
2015-02-28 05:22:53,0.0174880763116,0,0.5
2015-02-28 05:27:53,0.0198728139905,0,0.5
2015-02-28 05:32:53,0.0190779014308,0,0.5
2015-02-28 05:37:53,0.0182829888712,0,0.5
2015-02-28 05:42:53,0.0190779014308,0,0.5
2015-02-28 05:47:53,0.0087440381558,0,0.5
2015-02-28 05:52:53,0.0174880763116,0,0.5
2015-02-28 05:57:53,0.0127186009539,0,0.5
2015-02-28 06:02:53,0.00715421303657,0,0.974595917831
2015-02-28 06:07:53,0.00397456279809,0,0.974866562616
2015-02-28 06:12:53,0.0135135135135,0,0.976183795266
2015-02-28 06:17:53,0.00556438791733,0,0.980455267
2015-02-28 06:22:53,0.00635930047695,0,0.983687800113
2015-02-28 06:27:53,0.0087440381558,0,0.985801186433
2015-02-28 06:32:53,0.00317965023847,0,0.988800668845
2015-02-28 06:37:53,0.00476947535771,0,0.989458253154
2015-02-28 06:42:53,0.00715421303657,0,0.991012898475
2015-02-28 06:47:53,0.00556438791733,0,0.991967915566
2015-02-28 06:52:53,0.00476947535771,0,0.992265803433
2015-02-28 06:57:53,0.00794912559618,0,0.991763763288
2015-02-28 07:02:53,0.010333863275,0,0.985383417149
2015-02-28 07:07:53,0.00794912559618,0,0.984865769327
2015-02-28 07:12:53,0.00635930047695,0,0.984865769327
2015-02-28 07:17:53,0.00794912559618,0,0.985040041992
2015-02-28 07:22:53,0.00476947535771,0,0.984689755164
2015-02-28 07:27:53,0.00476947535771,0,0.984689755164
2015-02-28 07:32:53,0.00794912559618,0,0.984511985845
2015-02-28 07:37:53,0.00476947535771,0,0.984689755164
2015-02-28 07:42:53,0.00953895071542,0,0.983596329549
2015-02-28 07:47:53,0.0087440381558,0,0.983407739021
2015-02-28 07:52:53,0.00317965023847,0,0.985040041992
2015-02-28 07:57:53,0.00397456279809,0,0.985885756522
2015-02-28 08:02:53,0.00317965023847,0,0.986532351239
2015-02-28 08:07:53,0.00556438791733,0,0.987000363237
2015-02-28 08:12:53,0.00476947535771,0,0.987000363237
2015-02-28 08:17:53,0.00317965023847,0,0.987304501365
2015-02-28 08:22:53,0.00635930047695,0,0.987602462624
2015-02-28 08:27:53,0.00953895071542,0,0.986689946346
2015-02-28 08:32:53,0.0111287758347,0,0.986373147762
2015-02-28 08:37:53,0.00635930047695,0,0.986845946045
2015-02-28 08:42:53,0.00556438791733,0,0.986373147762
2015-02-28 08:47:53,0.00635930047695,0,0.985885756522
2015-02-28 08:52:53,0.00238473767886,0,0.986049863527
2015-02-28 08:57:53,0.00794912559618,0,0.985552546647
2015-02-28 09:02:53,0.00953895071542,0,0.984511985845
2015-02-28 09:07:53,0.00715421303657,0,0.983596329549
2015-02-28 09:12:53,0.00715421303657,0,0.983407739021
2015-02-28 09:17:53,0.0087440381558,0,0.983596329549
2015-02-28 09:22:53,0.00635930047695,0,0.984689755164
2015-02-28 09:27:53,0.00317965023847,0,0.985383417149
2015-02-28 09:32:53,0.00556438791733,0,0.985383417149
2015-02-28 09:37:53,0.0119236883943,0,0.984151126796
2015-02-28 09:42:53,0.0119236883943,0,0.981831129719
2015-02-28 09:47:53,0.00476947535771,0,0.982634710332
2015-02-28 09:52:53,0.00317965023847,0,0.984151126796
2015-02-28 09:57:53,0.0174880763116,0,0.981625352634
2015-02-28 10:02:53,0.00715421303657,0,0.981625352634
2015-02-28 10:07:53,0.00635930047695,0,0.982236796545
2015-02-28 10:12:53,0.0127186009539,0,0.980566444257
2015-02-28 10:17:53,0.00715421303657,0,0.979456137489
2015-02-28 10:22:53,0.00556438791733,0,0.979456137489
2015-02-28 10:27:53,0.00556438791733,0,0.981207838054
2015-02-28 10:32:53,0.00953895071542,0,0.981831129719
2015-02-28 10:37:53,0.00476947535771,0,0.981831129719
2015-02-28 10:42:53,0.00556438791733,0,0.981207838054
2015-02-28 10:47:53,0.0087440381558,0,0.983407739021
2015-02-28 10:52:53,0.0111287758347,0,0.982436715341
2015-02-28 10:57:53,0.0111287758347,0,0.981207838054
2015-02-28 11:02:53,0.00556438791733,0,0.983024986373
2015-02-28 11:07:53,0.00476947535771,0,0.983596329549
2015-02-28 11:12:53,0.00317965023847,0,0.984151126796
2015-02-28 11:17:53,0.00953895071542,0,0.983217296011
2015-02-28 11:22:53,0.00635930047695,0,0.983968009441
2015-02-28 11:27:53,0.00476947535771,0,0.983968009441
2015-02-28 11:32:53,0.0119236883943,0,0.982436715341
2015-02-28 11:37:53,0.00476947535771,0,0.983407739021
2015-02-28 11:42:53,0.000794912559618,0,0.985719988657
2015-02-28 11:47:53,0.00794912559618,0,0.986373147762
2015-02-28 11:52:53,0.00397456279809,0,0.986689946346
2015-02-28 11:57:53,0.00397456279809,0,0.986845946045
2015-02-28 12:02:53,0.00317965023847,0,0.986845946045
2015-02-28 12:07:53,0.00635930047695,0,0.987454247775
2015-02-28 12:12:53,0.00794912559618,0,0.987153210753
2015-02-28 12:17:53,0.00397456279809,0,0.987304501365
2015-02-28 12:22:53,0.00715421303657,0,0.988180256917
2015-02-28 12:27:53,0.0087440381558,0,0.987454247775
2015-02-28 12:32:53,0.00556438791733,0,0.986532351239
2015-02-28 12:37:53,0.010333863275,0,0.986049863527
2015-02-28 12:42:53,0.0111287758347,0,0.984511985845
2015-02-28 12:47:53,0.00715421303657,0,0.98378308168
2015-02-28 12:52:53,0.00556438791733,0,0.983217296011
2015-02-28 12:57:53,0.0127186009539,0,0.981625352634
2015-02-28 13:02:53,0.0087440381558,0,0.981417593636
2015-02-28 13:07:53,0.0087440381558,0,0.980128593994
2015-02-28 13:12:53,0.00794912559618,0,0.979906547697
2015-02-28 13:17:53,0.00794912559618,0,0.980128593994
2015-02-28 13:22:53,0.0119236883943,0,0.97829255036
2015-02-28 13:27:53,0.00317965023847,0,0.980348554513
2015-02-28 13:32:53,0.00635930047695,0,0.981625352634
2015-02-28 13:37:53,0.010333863275,0,0.980782278175
2015-02-28 13:42:53,0.00635930047695,0,0.980566444257
2015-02-28 13:47:53,0.00397456279809,0,0.982830795902
2015-02-28 13:52:53,0.0087440381558,0,0.982830795902
2015-02-28 13:57:53,0.010333863275,0,0.982436715341
2015-02-28 14:02:53,0.0087440381558,0,0.982236796545
2015-02-28 14:07:53,0.00317965023847,0,0.983407739021
2015-02-28 14:12:53,0.00953895071542,0,0.983968009441
2015-02-28 14:17:53,0.00238473767886,0,0.984151126796
2015-02-28 14:22:53,0.0087440381558,0,0.983596329549
2015-02-28 14:27:53,0.0135135135135,0,0.982830795902
2015-02-28 14:32:53,0.00953895071542,0,0.982034939504
2015-02-28 14:37:53,0.0087440381558,0,0.980782278175
2015-02-28 14:42:53,0.00476947535771,0,0.981831129719
2015-02-28 14:47:53,0.00715421303657,0,0.982634710332
2015-02-28 14:52:53,0.00715421303657,0,0.983024986373
2015-02-28 14:57:53,0.0111287758347,0,0.980996071161
2015-02-28 15:02:53,0.010333863275,0,0.980782278175
2015-02-28 15:07:53,0.0135135135135,0,0.977568028259
2015-02-28 15:12:53,0.0119236883943,0,0.976570365516
2015-02-28 15:17:53,0.00715421303657,0,0.978529621666
2015-02-28 15:22:53,0.0119236883943,0,0.835602684468
2015-02-28 15:27:53,0.0198728139905,0,0.822215148886
2015-02-28 15:32:53,0.00794912559618,0,0.818267220572
2015-02-28 15:37:53,0.0135135135135,0,0.81020834239
2015-02-28 15:42:53,0.0151033386328,0,0.799831081555
2015-02-28 15:47:53,0.0151033386328,0,0.794517004302
2015-02-28 15:52:53,0.0151033386328,0,0.788030766644
2015-02-28 15:57:53,0.0135135135135,0,0.788030766644
2015-02-28 16:02:53,0.0135135135135,0,0.7858423586
2015-02-28 16:07:53,0.0087440381558,0,0.783640860488
2015-02-28 16:12:53,0.00715421303657,0,0.790206039135
2015-02-28 16:17:53,0.010333863275,0,0.802979501343
2015-02-28 16:22:53,0.0111287758347,0,0.798774925316
2015-02-28 16:27:53,0.00953895071542,0,0.804022277591
2015-02-28 16:32:53,0.00397456279809,0,0.818267220572
2015-02-28 16:37:53,0.0111287758347,0,0.823193613968
2015-02-28 16:42:53,0.0174880763116,0,0.820247993996
2015-02-28 16:47:53,0.0182829888712,0,0.814264894933
2015-02-28 16:52:53,0.0087440381558,0,0.820247993996
2015-02-28 16:57:53,0.0158982511924,0,0.811227553963
2015-02-28 17:02:53,0.0182829888712,0,0.796652614784
2015-02-28 17:07:53,0.00556438791733,0,0.802979501343
2015-02-28 17:12:53,0.0158982511924,0,0.796652614784
2015-02-28 17:17:53,0.0135135135135,0,0.791288735815
2015-02-28 17:22:53,0.0365659777424,0,0.744265239816
2015-02-28 17:27:53,0.0127186009539,0,0.741837911177
2015-02-28 17:32:53,0.0143084260731,0,0.746680599004
2015-02-28 17:37:53,0.0119236883943,0,0.756220822994
2015-02-28 17:42:53,0.00953895071542,0,0.755038997586
2015-02-28 17:47:53,0.00556438791733,0,0.770159749668
2015-02-28 17:52:53,0.00635930047695,0,0.786938201765
2015-02-28 17:57:53,0.00794912559618,0,0.783640860488
2015-02-28 18:02:53,0.0158982511924,0,0.783640860488
2015-02-28 18:07:53,0.00238473767886,0,0.798774925316
2015-02-28 18:12:53,0.0278219395866,0,0.81020834239
2015-02-28 18:17:53,0.0135135135135,0,0.809185753846
2015-02-28 18:22:53,0.0127186009539,0,0.811227553963
2015-02-28 18:27:53,0.0087440381558,0,0.815270567233
2015-02-28 18:32:53,0.00635930047695,0,0.819259308466
2015-02-28 18:37:53,0.0087440381558,0,0.815270567233
2015-02-28 18:42:53,0.0127186009539,0,0.807130459354
2015-02-28 18:47:53,0.00794912559618,0,0.807130459354
2015-02-28 18:52:53,0.0111287758347,0,0.81325583332
2015-02-28 18:57:53,0.010333863275,0,0.802979501343
2015-02-28 19:02:53,0.00794912559618,0,0.828034739498
2015-02-28 19:07:53,0.0158982511924,0,0.825140309487
2015-02-28 19:12:53,0.00953895071542,0,0.828992712908
2015-02-28 19:17:53,0.0087440381558,0,0.828992712908
2015-02-28 19:22:53,0.010333863275,0,0.824168668128
2015-02-28 19:27:53,0.00953895071542,0,0.823193613968
2015-02-28 19:32:53,0.00715421303657,0,0.829947265656
2015-02-28 19:37:53,0.010333863275,0,0.827073346795
2015-02-28 19:42:53,0.00556438791733,0,0.833731246246
2015-02-28 19:47:53,0.0111287758347,0,0.832790387786
2015-02-28 19:52:53,0.0151033386328,0,0.824168668128
2015-02-28 19:57:53,0.0119236883943,0,0.828992712908
2015-02-28 20:02:53,0.0158982511924,0,0.821233274866
2015-02-28 20:07:53,0.0111287758347,0,0.818267220572
2015-02-28 20:12:53,0.00715421303657,0,0.822215148886
2015-02-28 20:17:53,0.0111287758347,0,0.820247993996
2015-02-28 20:22:53,0.010333863275,0,0.816272847399
2015-02-28 20:27:53,0.00635930047695,0,0.821233274866
2015-02-28 20:32:53,0.00794912559618,0,0.818267220572
2015-02-28 20:37:53,0.00556438791733,0,0.825140309487
2015-02-28 20:42:53,0.00794912559618,0,0.833731246246
2015-02-28 20:47:53,0.00476947535771,0,0.842044732745
2015-02-28 20:52:53,0.00715421303657,0,0.851828536149
2015-02-28 20:57:53,0.0087440381558,0,0.854424923109
2015-02-28 21:02:53,0.00953895071542,0,0.851828536149
2015-02-28 21:07:53,0.00556438791733,0,0.857838915462
2015-02-28 21:12:53,0.00794912559618,0,0.860363572153
2015-02-28 21:17:53,0.00794912559618,0,0.858683877869
2015-02-28 21:22:53,0.00556438791733,0,0.861198307897
2015-02-28 21:27:53,0.00556438791733,0,0.861198307897
2015-02-28 21:32:53,0.0087440381558,0,0.860363572153
2015-02-28 21:37:53,0.0119236883943,0,0.852697419561
2015-02-28 21:42:53,0.0111287758347,0,0.848318765498
2015-02-28 21:47:53,0.0143084260731,0,0.842044732745
2015-02-28 21:52:53,0.00794912559618,0,0.843854456141
2015-02-28 21:57:53,0.010333863275,0,0.838384135115
2015-02-28 22:02:53,0.010333863275,0,0.835602684468
2015-02-28 22:07:53,0.0111287758347,0,0.831846104209
2015-02-28 22:12:53,0.0158982511924,0,0.819259308466
2015-02-28 22:17:53,0.00953895071542,0,0.814264894933
2015-02-28 22:22:53,0.00715421303657,0,0.816272847399
2015-02-28 22:27:53,0.0127186009539,0,0.815270567233
2015-02-28 22:32:53,0.0174880763116,0,0.807130459354
2015-02-28 22:37:53,0.010333863275,0,0.812243385319
2015-02-28 22:42:53,0.0087440381558,0,0.811227553963
2015-02-28 22:47:53,0.0111287758347,0,0.81020834239
2015-02-28 22:52:53,0.00794912559618,0,0.81325583332
2015-02-28 22:57:53,0.0119236883943,0,0.812243385319
2015-02-28 23:02:53,0.0111287758347,0,0.818267220572
2015-02-28 23:07:53,0.0143084260731,0,0.812243385319
2015-02-28 23:12:53,0.010333863275,0,0.808159791681
2015-02-28 23:17:53,0.00953895071542,0,0.812243385319
2015-02-28 23:22:53,0.0198728139905,0,0.809185753846
2015-02-28 23:27:53,0.0190779014308,0,0.79771543488
2015-02-28 23:32:53,0.0143084260731,0,0.790206039135
2015-02-28 23:37:53,0.0127186009539,0,0.788030766644
2015-02-28 23:42:53,0.0111287758347,0,0.809397810542
2015-02-28 23:47:53,0.0230524642289,0,0.792993641384
2015-02-28 23:52:53,0.0198728139905,0,0.779537288759
2015-02-28 23:57:53,0.0214626391097,0,0.768164117317
2015-03-01 00:02:53,0.00556438791733,0,0.775782197482
2015-03-01 00:07:53,0.0143084260731,0,0.768164117317
2015-03-01 00:12:53,0.0151033386328,0,0.775782197482
2015-03-01 00:17:53,0.0246422893482,0,0.766880565778
2015-03-01 00:22:53,0.0143084260731,0,0.766880565778
2015-03-01 00:27:53,0.0182829888712,0,0.757786118603
2015-03-01 00:32:53,0.0135135135135,0,0.753830414732
2015-03-01 00:37:53,0.0151033386328,0,0.766880565778
2015-03-01 00:42:53,0.0127186009539,0,0.77828961318
2015-03-01 00:47:53,0.00794912559618,0,0.79894592048
2015-03-01 00:52:53,0.0111287758347,0,0.7905838316
2015-03-01 00:57:53,0.0151033386328,0,0.789372762469
2015-03-01 01:02:53,0.0190779014308,0,0.783256078718
2015-03-01 01:07:53,0.00556438791733,0,0.811674342319
2015-03-01 01:12:53,0.010333863275,0,0.817291875089
2015-03-01 01:17:53,0.0111287758347,0,0.827136530613
2015-03-01 01:22:53,0.00397456279809,0,0.839726148685
2015-03-01 01:27:53,0.00794912559618,0,0.848764814963
2015-03-01 01:32:53,0.00556438791733,0,0.857457840245
2015-03-01 01:37:53,0.00635930047695,0,0.859342794352
2015-03-01 01:42:53,0.0143084260731,0,0.855555876609
2015-03-01 01:47:53,0.00953895071542,0,0.862138377418
2015-03-01 01:52:53,0.00715421303657,0,0.875546000681
2015-03-01 01:57:53,0.0087440381558,0,0.872063177245
2015-03-01 02:02:53,0.00715421303657,0,0.875546000681
2015-03-01 02:07:53,0.00794912559618,0,0.878961980671
2015-03-01 02:12:53,0.00397456279809,0,0.878961980671
2015-03-01 02:17:53,0.0111287758347,0,0.875546000681
2015-03-01 02:22:53,0.00556438791733,0,0.875546000681
2015-03-01 02:27:53,0.00476947535771,0,0.877262325801
2015-03-01 02:32:53,0.00953895071542,0,0.882311453765
2015-03-01 02:37:53,0.0119236883943,0,0.879805570139
2015-03-01 02:42:53,0.0158982511924,0,0.870296602663
2015-03-01 02:47:53,0.00953895071542,0,0.869407008963
2015-03-01 02:52:53,0.00635930047695,0,0.870296602663
2015-03-01 02:57:53,0.00635930047695,0,0.872063177245
2015-03-01 03:02:53,0.00635930047695,0,0.869407008963
2015-03-01 03:07:53,0.00556438791733,0,0.875546000681
2015-03-01 03:12:53,0.0119236883943,0,0.868513205354