timestamp,value,is_anomaly,anomaly_score
2015-02-26 21:42:53,0.0752688172043,0,0.5
2015-02-26 21:47:53,0.0881720430108,0,0.5
2015-02-26 21:52:53,0.0688172043011,0,0.5
2015-02-26 21:57:53,0.0774193548387,0,0.5
2015-02-26 22:02:53,0.0688172043011,0,0.5
2015-02-26 22:07:53,0.0537634408602,0,0.5
2015-02-26 22:12:53,0.0709677419355,0,0.5
2015-02-26 22:17:53,0.0430107526882,0,0.5
2015-02-26 22:22:53,0.0817204301075,0,0.5
2015-02-26 22:27:53,0.0602150537634,0,0.5
2015-02-26 22:32:53,0.0602150537634,0,0.5
2015-02-26 22:37:53,0.058064516129,0,0.5
2015-02-26 22:42:53,0.0645161290323,0,0.5
2015-02-26 22:47:53,0.0666666666667,0,0.5
2015-02-26 22:52:53,0.0817204301075,0,0.5
2015-02-26 22:57:53,0.0752688172043,0,0.5
2015-02-26 23:02:53,0.0709677419355,0,0.5
2015-02-26 23:07:53,0.0516129032258,0,0.5
2015-02-26 23:12:53,0.0602150537634,0,0.5
2015-02-26 23:17:53,0.0430107526882,0,0.5
2015-02-26 23:22:53,0.0752688172043,0,0.5
2015-02-26 23:27:53,0.0623655913978,0,0.5
2015-02-26 23:32:53,0.0516129032258,0,0.5
2015-02-26 23:37:53,0.0516129032258,0,0.5
2015-02-26 23:42:53,0.0709677419355,0,0.5
2015-02-26 23:47:53,0.0774193548387,0,0.5
2015-02-26 23:52:53,0.0387096774194,0,0.5
2015-02-26 23:57:53,0.0602150537634,0,0.5
2015-02-27 00:02:53,0.0430107526882,0,0.5
2015-02-27 00:07:53,0.12688172043,0,0.5
2015-02-27 00:12:53,0.0881720430108,0,0.5
2015-02-27 00:17:53,0.208602150538,0,0.5
2015-02-27 00:22:53,0.131182795699,0,0.5
2015-02-27 00:27:53,0.225806451613,0,0.5
2015-02-27 00:32:53,0.111827956989,0,0.5
2015-02-27 00:37:53,0.0645161290323,0,0.5
2015-02-27 00:42:53,0.0494623655914,0,0.5
2015-02-27 00:47:53,0.0559139784946,0,0.5
2015-02-27 00:52:53,0.0924731182796,0,0.5
2015-02-27 00:57:53,0.0516129032258,0,0.5
2015-02-27 01:02:53,0.0881720430108,0,0.5
2015-02-27 01:07:53,0.0516129032258,0,0.5
2015-02-27 01:12:53,0.0709677419355,0,0.5
2015-02-27 01:17:53,0.0430107526882,0,0.5
2015-02-27 01:22:53,0.0451612903226,0,0.5
2015-02-27 01:27:53,0.0731182795699,0,0.5
2015-02-27 01:32:53,0.0838709677419,0,0.5
2015-02-27 01:37:53,0.0881720430108,0,0.5
2015-02-27 01:42:53,0.103225806452,0,0.5
2015-02-27 01:47:53,0.0602150537634,0,0.5
2015-02-27 01:52:53,0.0688172043011,0,0.5
2015-02-27 01:57:53,0.0559139784946,0,0.5
2015-02-27 02:02:53,0.0387096774194,0,0.5
2015-02-27 02:07:53,0.0365591397849,0,0.5
2015-02-27 02:12:53,0.0537634408602,0,0.5
2015-02-27 02:17:53,0.0537634408602,0,0.5
2015-02-27 02:22:53,0.0688172043011,0,0.5
2015-02-27 02:27:53,0.202150537634,0,0.5
2015-02-27 02:32:53,0.0838709677419,0,0.5
2015-02-27 02:37:53,0.0494623655914,0,0.5
2015-02-27 02:42:53,0.156989247312,0,0.5
2015-02-27 02:47:53,0.0666666666667,0,0.5
2015-02-27 02:52:53,0.0645161290323,0,0.5
2015-02-27 02:57:53,0.0752688172043,0,0.5
2015-02-27 03:02:53,0.0494623655914,0,0.5
2015-02-27 03:07:53,0.105376344086,0,0.5
2015-02-27 03:12:53,0.402150537634,0,0.5
2015-02-27 03:17:53,0.436559139785,0,0.5
2015-02-27 03:22:53,0.376344086022,0,0.5
2015-02-27 03:27:53,0.240860215054,0,0.5
2015-02-27 03:32:53,0.047311827957,0,0.5
2015-02-27 03:37:53,0.0516129032258,0,0.5
2015-02-27 03:42:53,0.0258064516129,0,0.5
2015-02-27 03:47:53,0.0559139784946,0,0.5
2015-02-27 03:52:53,0.0344086021505,0,0.5
2015-02-27 03:57:53,0.0301075268817,0,0.5
2015-02-27 04:02:53,0.0408602150538,0,0.5
2015-02-27 04:07:53,0.0451612903226,0,0.5
2015-02-27 04:12:53,0.0387096774194,0,0.5
2015-02-27 04:17:53,0.0258064516129,0,0.5
2015-02-27 04:22:53,0.0537634408602,0,0.5
2015-02-27 04:27:53,0.0365591397849,0,0.5
2015-02-27 04:32:53,0.0451612903226,0,0.5
2015-02-27 04:37:53,0.0387096774194,0,0.5
2015-02-27 04:42:53,0.047311827957,0,0.5
2015-02-27 04:47:53,0.0494623655914,0,0.5
2015-02-27 04:52:53,0.0559139784946,0,0.5
2015-02-27 04:57:53,0.0709677419355,0,0.5
2015-02-27 05:02:53,0.0559139784946,0,0.5
2015-02-27 05:07:53,0.0344086021505,0,0.5
2015-02-27 05:12:53,0.0322580645161,0,0.5
2015-02-27 05:17:53,0.0150537634409,0,0.5
2015-02-27 05:22:53,0.0301075268817,0,0.5
2015-02-27 05:27:53,0.0236559139785,0,0.5
2015-02-27 05:32:53,0.0666666666667,0,0.5
2015-02-27 05:37:53,0.0322580645161,0,0.5
2015-02-27 05:42:53,0.0322580645161,0,0.5
2015-02-27 05:47:53,0.0322580645161,0,0.5
2015-02-27 05:52:53,0.0537634408602,0,0.5
2015-02-27 05:57:53,0.0731182795699,0,0.5
2015-02-27 06:02:53,0.0430107526882,0,0.5
2015-02-27 06:07:53,0.0322580645161,0,0.5
2015-02-27 06:12:53,0.0344086021505,0,0.5
2015-02-27 06:17:53,0.0387096774194,0,0.5
2015-02-27 06:22:53,0.0129032258065,0,0.5
2015-02-27 06:27:53,0.0215053763441,0,0.5
2015-02-27 06:32:53,0.0430107526882,0,0.5
2015-02-27 06:37:53,0.0301075268817,0,0.5
2015-02-27 06:42:53,0.0236559139785,0,0.5
2015-02-27 06:47:53,0.058064516129,0,0.5
2015-02-27 06:52:53,0.0150537634409,0,0.5
2015-02-27 06:57:53,0.0451612903226,0,0.5
2015-02-27 07:02:53,0.0344086021505,0,0.5
2015-02-27 07:07:53,0.0430107526882,0,0.5
2015-02-27 07:12:53,0.0236559139785,0,0.5
2015-02-27 07:17:53,0.0236559139785,0,0.5
2015-02-27 07:22:53,0.0451612903226,0,0.5
2015-02-27 07:27:53,0.0344086021505,0,0.5
2015-02-27 07:32:53,0.0344086021505,0,0.5
2015-02-27 07:37:53,0.0344086021505,0,0.5
2015-02-27 07:42:53,0.0387096774194,0,0.5
2015-02-27 07:47:53,0.0215053763441,0,0.5
2015-02-27 07:52:53,0.0279569892473,0,0.5
2015-02-27 07:57:53,0.0451612903226,0,0.5
2015-02-27 08:02:53,0.0387096774194,0,0.5
2015-02-27 08:07:53,0.0236559139785,0,0.5
2015-02-27 08:12:53,0.0365591397849,0,0.5
2015-02-27 08:17:53,0.0408602150538,0,0.5
2015-02-27 08:22:53,0.0172043010753,0,0.5
2015-02-27 08:27:53,0.0301075268817,0,0.5
2015-02-27 08:32:53,0.0387096774194,0,0.5
2015-02-27 08:37:53,0.0279569892473,0,0.5
2015-02-27 08:42:53,0.0344086021505,0,0.5
2015-02-27 08:47:53,0.0387096774194,0,0.5
2015-02-27 08:52:53,0.0172043010753,0,0.5
2015-02-27 08:57:53,0.0365591397849,0,0.5
2015-02-27 09:02:53,0.0602150537634,0,0.5
2015-02-27 09:07:53,0.0301075268817,0,0.5
2015-02-27 09:12:53,0.0301075268817,0,0.5
2015-02-27 09:17:53,0.0344086021505,0,0.5
2015-02-27 09:22:53,0.0193548387097,0,0.5
2015-02-27 09:27:53,0.0430107526882,0,0.5
2015-02-27 09:32:53,0.0365591397849,0,0.5
2015-02-27 09:37:53,0.0279569892473,0,0.5
2015-02-27 09:42:53,0.047311827957,0,0.5
2015-02-27 09:47:53,0.0408602150538,0,0.5
2015-02-27 09:52:53,0.0408602150538,0,0.5
2015-02-27 09:57:53,0.0645161290323,0,0.5
2015-02-27 10:02:53,0.0258064516129,0,0.5
2015-02-27 10:07:53,0.0279569892473,0,0.5
2015-02-27 10:12:53,0.0279569892473,0,0.5
2015-02-27 10:17:53,0.0258064516129,0,0.5
2015-02-27 10:22:53,0.0279569892473,0,0.5
2015-02-27 10:27:53,0.131182795699,0,0.5
2015-02-27 10:32:53,0.0258064516129,0,0.5
2015-02-27 10:37:53,0.0408602150538,0,0.5
2015-02-27 10:42:53,0.0731182795699,0,0.5
2015-02-27 10:47:53,0.0537634408602,0,0.5
2015-02-27 10:52:53,0.0408602150538,0,0.5
2015-02-27 10:57:53,0.0301075268817,0,0.5
2015-02-27 11:02:53,0.0365591397849,0,0.5
2015-02-27 11:07:53,0.0709677419355,0,0.5
2015-02-27 11:12:53,0.0408602150538,0,0.5
2015-02-27 11:17:53,0.0236559139785,0,0.5
2015-02-27 11:22:53,0.0193548387097,0,0.5
2015-02-27 11:27:53,0.0301075268817,0,0.5
2015-02-27 11:32:53,0.047311827957,0,0.5
2015-02-27 11:37:53,0.0193548387097,0,0.5
2015-02-27 11:42:53,0.0451612903226,0,0.5
2015-02-27 11:47:53,0.0516129032258,0,0.5
2015-02-27 11:52:53,0.0215053763441,0,0.5
2015-02-27 11:57:53,0.0322580645161,0,0.5
2015-02-27 12:02:53,0.0408602150538,0,0.5
2015-02-27 12:07:53,0.0645161290323,0,0.5
2015-02-27 12:12:53,0.0774193548387,0,0.5
2015-02-27 12:17:53,0.0451612903226,0,0.5
2015-02-27 12:22:53,0.0516129032258,0,0.5
2015-02-27 12:27:53,0.0516129032258,0,0.5
2015-02-27 12:32:53,0.0451612903226,0,0.5
2015-02-27 12:37:53,0.0301075268817,0,0.5
2015-02-27 12:42:53,0.047311827957,0,0.5
2015-02-27 12:47:53,0.0516129032258,0,0.5
2015-02-27 12:52:53,0.0430107526882,0,0.5
2015-02-27 12:57:53,0.0430107526882,0,0.5
2015-02-27 13:02:53,0.0430107526882,0,0.5
2015-02-27 13:07:53,0.0301075268817,0,0.5
2015-02-27 13:12:53,0.0408602150538,0,0.5
2015-02-27 13:17:53,0.0236559139785,0,0.5
2015-02-27 13:22:53,0.0258064516129,0,0.5
2015-02-27 13:27:53,0.0537634408602,0,0.5
2015-02-27 13:32:53,0.0322580645161,0,0.5
2015-02-27 13:37:53,0.0365591397849,0,0.5
2015-02-27 13:42:53,0.0215053763441,0,0.5
2015-02-27 13:47:53,0.0430107526882,0,0.5
2015-02-27 13:52:53,0.0301075268817,0,0.5
2015-02-27 13:57:53,0.0430107526882,0,0.5
2015-02-27 14:02:53,0.0301075268817,0,0.5
2015-02-27 14:07:53,0.0451612903226,0,0.5
2015-02-27 14:12:53,0.0322580645161,0,0.5
2015-02-27 14:17:53,0.0666666666667,0,0.5
2015-02-27 14:22:53,0.0623655913978,0,0.5
2015-02-27 14:27:53,0.0731182795699,0,0.5
2015-02-27 14:32:53,0.0645161290323,0,0.5
2015-02-27 14:37:53,0.0559139784946,0,0.5
2015-02-27 14:42:53,0.0451612903226,0,0.5
2015-02-27 14:47:53,0.0645161290323,0,0.5
2015-02-27 14:52:53,0.0516129032258,0,0.5
2015-02-27 14:57:53,0.101075268817,0,0.5
2015-02-27 15:02:53,0.0451612903226,0,0.5
2015-02-27 15:07:53,0.0645161290323,0,0.5
2015-02-27 15:12:53,0.058064516129,0,0.5
2015-02-27 15:17:53,0.0387096774194,0,0.5
2015-02-27 15:22:53,0.0860215053763,0,0.5
2015-02-27 15:27:53,0.0387096774194,0,0.5
2015-02-27 15:32:53,0.0430107526882,0,0.5
2015-02-27 15:37:53,0.0494623655914,0,0.5
2015-02-27 15:42:53,0.0301075268817,0,0.5
2015-02-27 15:47:53,0.0430107526882,0,0.5
2015-02-27 15:52:53,0.047311827957,0,0.5
2015-02-27 15:57:53,0.0602150537634,0,0.5
2015-02-27 16:02:53,0.0387096774194,0,0.5
2015-02-27 16:07:53,0.0408602150538,0,0.5
2015-02-27 16:12:53,0.058064516129,0,0.5
2015-02-27 16:17:53,0.0645161290323,0,0.5
2015-02-27 16:22:53,0.0494623655914,0,0.5
2015-02-27 16:27:53,0.0365591397849,0,0.5
2015-02-27 16:32:53,0.0516129032258,0,0.5
2015-02-27 16:37:53,0.0387096774194,0,0.5
2015-02-27 16:42:53,0.058064516129,0,0.5
2015-02-27 16:47:53,0.0903225806452,0,0.5
2015-02-27 16:52:53,0.047311827957,0,0.5
2015-02-27 16:57:53,0.215053763441,0,0.5
2015-02-27 17:02:53,0.144086021505,0,0.5
2015-02-27 17:07:53,0.0924731182796,0,0.5
2015-02-27 17:12:53,0.0924731182796,0,0.5
2015-02-27 17:17:53,0.0516129032258,0,0.5
2015-02-27 17:22:53,0.047311827957,0,0.5
2015-02-27 17:27:53,0.0924731182796,0,0.5
2015-02-27 17:32:53,0.0838709677419,0,0.5
2015-02-27 17:37:53,0.0795698924731,0,0.5
2015-02-27 17:42:53,0.0881720430108,0,0.5
2015-02-27 17:47:53,0.0537634408602,0,0.5
2015-02-27 17:52:53,0.0516129032258,0,0.5
2015-02-27 17:57:53,0.135483870968,0,0.5
2015-02-27 18:02:53,0.172043010753,0,0.5
2015-02-27 18:07:53,0.103225806452,0,0.5
2015-02-27 18:12:53,0.124731182796,0,0.5
2015-02-27 18:17:53,0.111827956989,0,0.5
2015-02-27 18:22:53,0.094623655914,0,0.5
2015-02-27 18:27:53,0.14623655914,0,0.5
2015-02-27 18:32:53,0.124731182796,0,0.5
2015-02-27 18:37:53,0.240860215054,0,0.5
2015-02-27 18:42:53,0.165591397849,0,0.5
2015-02-27 18:47:53,0.0989247311828,0,0.5
2015-02-27 18:52:53,0.434408602151,0,0.5
2015-02-27 18:57:53,0.225806451613,0,0.5
2015-02-27 19:02:53,0.129032258065,0,0.5
2015-02-27 19:07:53,0.131182795699,0,0.5
2015-02-27 19:12:53,0.118279569892,0,0.5
2015-02-27 19:17:53,0.0731182795699,0,0.5
2015-02-27 19:22:53,0.0752688172043,0,0.5
2015-02-27 19:27:53,0.131182795699,0,0.5
2015-02-27 19:32:53,0.101075268817,0,0.5
2015-02-27 19:37:53,0.0645161290323,0,0.5
2015-02-27 19:42:53,0.0795698924731,0,0.5
2015-02-27 19:47:53,0.0881720430108,0,0.5
2015-02-27 19:52:53,0.116129032258,0,0.5
2015-02-27 19:57:53,0.0752688172043,0,0.5
2015-02-27 20:02:53,0.0838709677419,0,0.5
2015-02-27 20:07:53,0.116129032258,0,0.5
2015-02-27 20:12:53,0.249462365591,0,0.5
2015-02-27 20:17:53,0.165591397849,0,0.5
2015-02-27 20:22:53,0.161290322581,0,0.5
2015-02-27 20:27:53,0.193548387097,0,0.5
2015-02-27 20:32:53,0.150537634409,0,0.5
2015-02-27 20:37:53,0.0881720430108,0,0.5
2015-02-27 20:42:53,0.0516129032258,0,0.5
2015-02-27 20:47:53,0.0860215053763,0,0.5
2015-02-27 20:52:53,0.0559139784946,0,0.5
2015-02-27 20:57:53,0.0774193548387,0,0.5
2015-02-27 21:02:53,0.0774193548387,0,0.5
2015-02-27 21:07:53,0.0666666666667,0,0.5
2015-02-27 21:12:53,0.0731182795699,0,0.5
2015-02-27 21:17:53,0.0860215053763,0,0.5
2015-02-27 21:22:53,0.0645161290323,0,0.5
2015-02-27 21:27:53,0.150537634409,0,0.5
2015-02-27 21:32:53,0.0860215053763,0,0.5
2015-02-27 21:37:53,0.0774193548387,0,0.5
2015-02-27 21:42:53,0.0666666666667,0,0.5
2015-02-27 21:47:53,0.0903225806452,0,0.5
2015-02-27 21:52:53,0.0666666666667,0,0.5
2015-02-27 21:57:53,0.0688172043011,0,0.5
2015-02-27 22:02:53,0.0516129032258,0,0.5
2015-02-27 22:07:53,0.0688172043011,0,0.5
2015-02-27 22:12:53,0.0688172043011,0,0.5
2015-02-27 22:17:53,0.0709677419355,0,0.5
2015-02-27 22:22:53,0.058064516129,0,0.5
2015-02-27 22:27:53,0.0666666666667,0,0.5
2015-02-27 22:32:53,0.0537634408602,0,0.5
2015-02-27 22:37:53,0.0516129032258,0,0.5
2015-02-27 22:42:53,0.0451612903226,0,0.5
2015-02-27 22:47:53,0.0537634408602,0,0.5
2015-02-27 22:52:53,0.0279569892473,0,0.5
2015-02-27 22:57:53,0.058064516129,0,0.5
2015-02-27 23:02:53,0.0795698924731,0,0.5
2015-02-27 23:07:53,0.0430107526882,0,0.5
2015-02-27 23:12:53,0.0365591397849,0,0.5
2015-02-27 23:17:53,0.0387096774194,0,0.5
2015-02-27 23:22:53,0.0430107526882,0,0.5
2015-02-27 23:27:53,0.0516129032258,0,0.5
2015-02-27 23:32:53,0.058064516129,0,0.5
2015-02-27 23:37:53,0.124731182796,0,0.5
2015-02-27 23:42:53,0.172043010753,0,0.5
2015-02-27 23:47:53,0.109677419355,0,0.5
2015-02-27 23:52:53,0.0903225806452,0,0.5
2015-02-27 23:57:53,0.0838709677419,0,0.5
2015-02-28 00:02:53,0.0602150537634,0,0.5
2015-02-28 00:07:53,0.058064516129,0,0.5
2015-02-28 00:12:53,0.047311827957,0,0.5
2015-02-28 00:17:53,0.0451612903226,0,0.5
2015-02-28 00:22:53,0.0430107526882,0,0.5
2015-02-28 00:27:53,0.0752688172043,0,0.5
2015-02-28 00:32:53,0.0537634408602,0,0.5
2015-02-28 00:37:53,0.0344086021505,0,0.5
2015-02-28 00:42:53,0.0322580645161,0,0.5
2015-02-28 00:47:53,0.047311827957,0,0.5
2015-02-28 00:52:53,0.223655913978,0,0.5
2015-02-28 00:57:53,0.0387096774194,0,0.5
2015-02-28 01:02:53,0.0279569892473,0,0.5
2015-02-28 01:07:53,0.0344086021505,0,0.5
2015-02-28 01:12:53,0.0301075268817,0,0.5
2015-02-28 01:17:53,0.0430107526882,0,0.5
2015-02-28 01:22:53,0.0365591397849,0,0.5
2015-02-28 01:27:53,0.0537634408602,0,0.5
2015-02-28 01:32:53,0.0344086021505,0,0.5
2015-02-28 01:37:53,0.0279569892473,0,0.5
2015-02-28 01:42:53,0.0258064516129,0,0.5
2015-02-28 01:47:53,0.0258064516129,0,0.5
2015-02-28 01:52:53,0.0451612903226,0,0.5
2015-02-28 01:57:53,0.0279569892473,0,0.5
2015-02-28 02:02:53,0.0516129032258,0,0.5
2015-02-28 02:07:53,0.0430107526882,0,0.5
2015-02-28 02:12:53,0.0258064516129,0,0.5
2015-02-28 02:17:53,0.0258064516129,0,0.5
2015-02-28 02:22:53,0.0279569892473,0,0.5
2015-02-28 02:27:53,0.0322580645161,0,0.5
2015-02-28 02:32:53,0.0258064516129,0,0.5
2015-02-28 02:37:53,0.0344086021505,0,0.5
2015-02-28 02:42:53,0.0279569892473,0,0.5
2015-02-28 02:47:53,0.0322580645161,0,0.5
2015-02-28 02:52:53,0.0215053763441,0,0.5
2015-02-28 02:57:53,0.0344086021505,0,0.5
2015-02-28 03:02:53,0.0301075268817,0,0.5
2015-02-28 03:07:53,0.0258064516129,0,0.5
2015-02-28 03:12:53,0.0150537634409,0,0.5
2015-02-28 03:17:53,0.0322580645161,0,0.5
2015-02-28 03:22:53,0.0279569892473,0,0.5
2015-02-28 03:27:53,0.0236559139785,0,0.5
2015-02-28 03:32:53,0.0172043010753,0,0.5
2015-02-28 03:37:53,0.0129032258065,0,0.5
2015-02-28 03:42:53,0.0322580645161,0,0.5
2015-02-28 03:47:53,0.0193548387097,0,0.5
2015-02-28 03:52:53,0.0150537634409,0,0.5
2015-02-28 03:57:53,0.0236559139785,0,0.5
2015-02-28 04:02:53,0.0193548387097,0,0.5
2015-02-28 04:07:53,0.0258064516129,0,0.5
2015-02-28 04:12:53,0.0129032258065,0,0.5
2015-02-28 04:17:53,0.0172043010753,0,0.5
2015-02-28 04:22:53,0.00860215053763,0,0.5
2015-02-28 04:27:53,0.0215053763441,0,0.5
2015-02-28 04:32:53,0.0301075268817,0,0.5
2015-02-28 04:37:53,0.0258064516129,0,0.5
2015-02-28 04:42:53,0.0537634408602,0,0.5
2015-02-28 04:47:53,0.0301075268817,0,0.5
2015-02-28 04:52:53,0.0172043010753,0,0.5
2015-02-28 04:57:53,0.0301075268817,0,0.5
2015-02-28 05:02:53,0.0150537634409,0,0.5
2015-02-28 05:07:53,0.047311827957,0,0.5
2015-02-28 05:12:53,0.0494623655914,0,0.5
2015-02-28 05:17:53,0.0193548387097,0,0.5
2015-02-28 05:22:53,0.058064516129,0,0.5
2015-02-28 05:27:53,0.0236559139785,0,0.5
2015-02-28 05:32:53,0.0172043010753,0,0.5
2015-02-28 05:37:53,0.0408602150538,0,0.5
2015-02-28 05:42:53,0.0430107526882,0,0.5
2015-02-28 05:47:53,0.0150537634409,0,0.5
2015-02-28 05:52:53,0.0344086021505,0,0.5
2015-02-28 05:57:53,0.0193548387097,0,0.5
2015-02-28 06:02:53,0.0322580645161,0,0.783358988095
2015-02-28 06:07:53,0.0215053763441,0,0.780332885681
2015-02-28 06:12:53,0.0430107526882,0,0.801002292576
2015-02-28 06:17:53,0.0193548387097,0,0.806685376391
2015-02-28 06:22:53,0.0236559139785,0,0.798123387637
2015-02-28 06:27:53,0.0172043010753,0,0.828411094762
2015-02-28 06:32:53,0.0365591397849,0,0.836139466698
2015-02-28 06:37:53,0.0688172043011,0,0.764843178268
2015-02-28 06:42:53,0.00860215053763,0,0.801002292576
2015-02-28 06:47:53,0.0150537634409,0,0.806685376391
2015-02-28 06:52:53,0.0193548387097,0,0.823131566175
2015-02-28 06:57:53,0.0258064516129,0,0.817750514119
2015-02-28 07:02:53,0.010752688172,0,0.838165866781
2015-02-28 07:07:53,0.010752688172,0,0.848210933435
2015-02-28 07:12:53,0.0150537634409,0,0.857832821084
2015-02-28 07:17:53,0.0215053763441,0,0.853074700808
2015-02-28 07:22:53,0.0215053763441,0,0.869267817995
2015-02-28 07:27:53,0.0258064516129,0,0.908594647156
2015-02-28 07:32:53,0.0236559139785,0,0.895971423611
2015-02-28 07:37:53,0.0129032258065,0,0.897848365142
2015-02-28 07:42:53,0.0129032258065,0,0.903331149941
2015-02-28 07:47:53,0.0215053763441,0,0.906864284552
2015-02-28 07:52:53,0.0322580645161,0,0.888213676216
2015-02-28 07:57:53,0.0279569892473,0,0.871476303428
2015-02-28 08:02:53,0.0172043010753,0,0.869267817995
2015-02-28 08:07:53,0.0215053763441,0,0.869267817995
2015-02-28 08:12:53,0.0258064516129,0,0.86477250078
2015-02-28 08:17:53,0.0129032258065,0,0.877945872325
2015-02-28 08:22:53,0.0215053763441,0,0.880050684735
2015-02-28 08:27:53,0.0172043010753,0,0.875815257397
2015-02-28 08:32:53,0.0193548387097,0,0.869267817995
2015-02-28 08:37:53,0.0258064516129,0,0.86477250078
2015-02-28 08:42:53,0.010752688172,0,0.886211179148
2015-02-28 08:47:53,0.0129032258065,0,0.899700548369
2015-02-28 08:52:53,0.0150537634409,0,0.901528099881
2015-02-28 08:57:53,0.0301075268817,0,0.894069600947
2015-02-28 09:02:53,0.00860215053763,0,0.908594647156
2015-02-28 09:07:53,0.0322580645161,0,0.892142778177
2015-02-28 09:12:53,0.0451612903226,0,0.869267817995
2015-02-28 09:17:53,0.0365591397849,0,0.848210933435
2015-02-28 09:22:53,0.0129032258065,0,0.855466952746
2015-02-28 09:27:53,0.0236559139785,0,0.857832821084
2015-02-28 09:32:53,0.010752688172,0,0.857832821084
2015-02-28 09:37:53,0.00645161290323,0,0.86477250078
2015-02-28 09:42:53,0.0150537634409,0,0.86477250078
2015-02-28 09:47:53,0.0150537634409,0,0.880050684735
2015-02-28 09:52:53,0.00645161290323,0,0.882129779586
2015-02-28 09:57:53,0.0322580645161,0,0.882129779586
2015-02-28 10:02:53,0.0172043010753,0,0.906864284552
2015-02-28 10:07:53,0.0172043010753,0,0.921588258049
2015-02-28 10:12:53,0.0150537634409,0,0.9200451689
2015-02-28 10:17:53,0.00860215053763,0,0.930376414446
2015-02-28 10:22:53,0.047311827957,0,0.903331149941
2015-02-28 10:27:53,0.0172043010753,0,0.894069600947
2015-02-28 10:32:53,0.0215053763441,0,0.888213676216
2015-02-28 10:37:53,0.0301075268817,0,0.873658759631
2015-02-28 10:42:53,0.0365591397849,0,0.840716846432
2015-02-28 10:47:53,0.0279569892473,0,0.845739375433
2015-02-28 10:52:53,0.0193548387097,0,0.843241348832
2015-02-28 10:57:53,0.0279569892473,0,0.830354137294
2015-02-28 11:02:53,0.0709677419355,0,0.752882198265
2015-02-28 11:07:53,0.0537634408602,0,0.678644983672
2015-02-28 11:12:53,0.0322580645161,0,0.704413824174
2015-02-28 11:17:53,0.0172043010753,0,0.704413824174
2015-02-28 11:22:53,0.0193548387097,0,0.708016227852
2015-02-28 11:27:53,0.0236559139785,0,0.718698898417
2015-02-28 11:32:53,0.0172043010753,0,0.749566728116
2015-02-28 11:37:53,0.00860215053763,0,0.778540440648
2015-02-28 11:42:53,0.0129032258065,0,0.787754828231
2015-02-28 11:47:53,0.0150537634409,0,0.80549645411
2015-02-28 11:52:53,0.0129032258065,0,0.873658759631
2015-02-28 11:57:53,0.047311827957,0,0.880050684735
2015-02-28 12:02:53,0.0365591397849,0,0.875815257397
2015-02-28 12:07:53,0.0279569892473,0,0.86477250078
2015-02-28 12:12:53,0.0279569892473,0,0.855466952746
2015-02-28 12:17:53,0.0408602150538,0,0.835588414237
2015-02-28 12:22:53,0.0666666666667,0,0.76910150918
2015-02-28 12:27:53,0.0494623655914,0,0.704413824174
2015-02-28 12:32:53,0.0279569892473,0,0.678644983672
2015-02-28 12:37:53,0.0451612903226,0,0.624553981081
2015-02-28 12:42:53,0.0258064516129,0,0.60052228284
2015-02-28 12:47:53,0.0236559139785,0,0.644221882142
2015-02-28 12:52:53,0.0322580645161,0,0.651986143227
2015-02-28 12:57:53,0.0279569892473,0,0.651986143227
2015-02-28 13:02:53,0.0215053763441,0,0.663513144022
2015-02-28 13:07:53,0.0258064516129,0,0.689804100767
2015-02-28 13:12:53,0.0344086021505,0,0.742865707285
2015-02-28 13:17:53,0.0301075268817,0,0.772272530283
2015-02-28 13:22:53,0.0387096774194,0,0.756174044928
2015-02-28 13:27:53,0.0365591397849,0,0.76910150918
2015-02-28 13:32:53,0.0172043010753,0,0.781637036877
2015-02-28 13:37:53,0.0172043010753,0,0.790775769796
2015-02-28 13:42:53,0.0279569892473,0,0.796741159946
2015-02-28 13:47:53,0.0193548387097,0,0.808363104291
2015-02-28 13:52:53,0.0258064516129,0,0.80260385592
2015-02-28 13:57:53,0.0537634408602,0,0.76268611715
2015-02-28 14:02:53,0.0365591397849,0,0.759442078803
2015-02-28 14:07:53,0.0322580645161,0,0.756174044928
2015-02-28 14:12:53,0.0516129032258,0,0.736072627441
2015-02-28 14:17:53,0.0365591397849,0,0.736072627441
2015-02-28 14:22:53,0.0365591397849,0,0.704413824174
2015-02-28 14:27:53,0.0494623655914,0,0.648111733082
2015-02-28 14:32:53,0.0365591397849,0,0.632463365912
2015-02-28 14:37:53,0.0322580645161,0,0.608580251814
2015-02-28 14:42:53,0.0387096774194,0,0.584280525139
2015-02-28 14:47:53,0.0301075268817,0,0.628515456345
2015-02-28 14:52:53,0.047311827957,0,0.608580251814
2015-02-28 14:57:53,0.047311827957,0,0.580196318329
2015-02-28 15:02:53,0.0559139784946,0,0.572002366662
2015-02-28 15:07:53,0.0387096774194,0,0.567893485353
2015-02-28 15:12:53,0.0774193548387,0,0.511065047019
2015-02-28 15:17:53,0.0322580645161,0,0.52230759875
2015-02-28 15:22:53,0.0408602150538,0,0.664672922857
2015-02-28 15:27:53,0.0516129032258,0,0.702567850634
2015-02-28 15:32:53,0.0258064516129,0,0.677517122369
2015-02-28 15:37:53,0.0279569892473,0,0.673258256803
2015-02-28 15:42:53,0.0365591397849,0,0.651633279725
2015-02-28 15:47:53,0.0301075268817,0,0.616011727968
2015-02-28 15:52:53,0.0430107526882,0,0.588617226043
2015-02-28 15:57:53,0.0344086021505,0,0.579381570697
2015-02-28 16:02:53,0.0430107526882,0,0.504344210959
2015-02-28 16:07:53,0.0150537634409,0,0.533400829063
2015-02-28 16:12:53,0.0688172043011,0,0.527936577247
2015-02-28 16:17:53,0.0344086021505,0,0.509823801315
2015-02-28 16:22:53,0.0322580645161,0,0.504344210959
2015-02-28 16:27:53,0.0602150537634,0,0.574746966314
2015-02-28 16:32:53,0.0408602150538,0,0.584005197425
2015-02-28 16:37:53,0.0215053763441,0,0.56544732891
2015-02-28 16:42:53,0.0451612903226,0,0.570102009282
2015-02-28 16:47:53,0.0451612903226,0,0.593217040901
2015-02-28 16:52:53,0.0430107526882,0,0.593217040901
2015-02-28 16:57:53,0.0537634408602,0,0.673258256803
2015-02-28 17:02:53,0.0344086021505,0,0.602377592226
2015-02-28 17:07:53,0.0387096774194,0,0.611482031524
2015-02-28 17:12:53,0.0215053763441,0,0.588617226043
2015-02-28 17:17:53,0.0236559139785,0,0.509066546594
2015-02-28 17:22:53,0.0989247311828,0,0.633966861218
2015-02-28 17:27:53,0.0172043010753,0,0.62502316572
2015-02-28 17:32:53,0.0666666666667,0,0.668976696196
2015-02-28 17:37:53,0.047311827957,0,0.673258256803
2015-02-28 17:42:53,0.0236559139785,0,0.633966861218
2015-02-28 17:47:53,0.0301075268817,0,0.584005197425
2015-02-28 17:52:53,0.0172043010753,0,0.546744096347
2015-02-28 17:57:53,0.0494623655914,0,0.570102009282
2015-02-28 18:02:53,0.0408602150538,0,0.611482031524
2015-02-28 18:07:53,0.0430107526882,0,0.651633279725
2015-02-28 18:12:53,0.0365591397849,0,0.51850674525
2015-02-28 18:17:53,0.0408602150538,0,0.570102009282
2015-02-28 18:22:53,0.0236559139785,0,0.523979427942
2015-02-28 18:27:53,0.0344086021505,0,0.552182371115
2015-02-28 18:32:53,0.0344086021505,0,0.528692135694
2015-02-28 18:37:53,0.0193548387097,0,0.552182371115
2015-02-28 18:42:53,0.0301075268817,0,0.523979427942
2015-02-28 18:47:53,0.0344086021505,0,0.556861196871
2015-02-28 18:52:53,0.0129032258065,0,0.616736734231
2015-02-28 18:57:53,0.0688172043011,0,0.561532107474
2015-02-28 19:02:53,0.0645161290323,0,0.500378733512
2015-02-28 19:07:53,0.0838709677419,0,0.593217040901
2015-02-28 19:12:53,0.0645161290323,0,0.677517122369
2015-02-28 19:17:53,0.058064516129,0,0.722738024313
2015-02-28 19:22:53,0.0344086021505,0,0.722738024313
2015-02-28 19:27:53,0.0365591397849,0,0.75355067036
2015-02-28 19:32:53,0.0430107526882,0,0.77539689923
2015-02-28 19:37:53,0.058064516129,0,0.812451603931
2015-02-28 19:42:53,0.0430107526882,0,0.853763292324
2015-02-28 19:47:53,0.0451612903226,0,0.821861760846
2015-02-28 19:52:53,0.047311827957,0,0.796100284923
2015-02-28 19:57:53,0.0537634408602,0,0.746023367798
2015-02-28 20:02:53,0.0408602150538,0,0.702567850634
2015-02-28 20:07:53,0.0451612903226,0,0.677517122369
2015-02-28 20:12:53,0.0430107526882,0,0.694316302708
2015-02-28 20:17:53,0.0279569892473,0,0.677517122369
2015-02-28 20:22:53,0.0301075268817,0,0.651633279725
2015-02-28 20:27:53,0.0279569892473,0,0.588617226043
2015-02-28 20:32:53,0.0408602150538,0,0.584005197425
2015-02-28 20:37:53,0.0344086021505,0,0.560783558553
2015-02-28 20:42:53,0.0279569892473,0,0.51850674525
2015-02-28 20:47:53,0.0301075268817,0,0.533400829063
2015-02-28 20:52:53,0.0494623655914,0,0.51454460116
2015-02-28 20:57:53,0.0451612903226,0,0.51454460116
2015-02-28 21:02:53,0.0236559139785,0,0.556861196871
2015-02-28 21:07:53,0.0537634408602,0,0.500378733512
2015-02-28 21:12:53,0.0172043010753,0,0.528692135694
2015-02-28 21:17:53,0.0236559139785,0,0.538104852118
2015-02-28 21:22:53,0.0279569892473,0,0.566194462806
2015-02-28 21:27:53,0.0451612903226,0,0.542803550888
2015-02-28 21:32:53,0.0215053763441,0,0.556861196871
2015-02-28 21:37:53,0.0258064516129,0,0.566194462806
2015-02-28 21:42:53,0.0301075268817,0,0.60766702389
2015-02-28 21:47:53,0.0365591397849,0,0.625742907149
2015-02-28 21:52:53,0.0408602150538,0,0.589355770493
2015-02-28 21:57:53,0.0494623655914,0,0.598538446886
2015-02-28 22:02:53,0.0279569892473,0,0.575490965277
2015-02-28 22:07:53,0.0301075268817,0,0.561532107474
2015-02-28 22:12:53,0.0408602150538,0,0.533400829063
2015-02-28 22:17:53,0.0215053763441,0,0.584745659364
2015-02-28 22:22:53,0.0258064516129,0,0.575490965277
2015-02-28 22:27:53,0.0150537634409,0,0.598538446886
2015-02-28 22:32:53,0.0236559139785,0,0.612209531663
2015-02-28 22:37:53,0.0215053763441,0,0.643546483025
2015-02-28 22:42:53,0.0193548387097,0,0.686638173907
2015-02-28 22:47:53,0.0301075268817,0,0.723373758901
2015-02-28 22:52:53,0.0279569892473,0,0.723373758901
2015-02-28 22:57:53,0.0365591397849,0,0.711364984902
2015-02-28 23:02:53,0.0516129032258,0,0.690822245362
2015-02-28 23:07:53,0.010752688172,0,0.711364984902
2015-02-28 23:12:53,0.0193548387097,0,0.723373758901
2015-02-28 23:17:53,0.0430107526882,0,0.669664869786
2015-02-28 23:22:53,0.0236559139785,0,0.669664869786
2015-02-28 23:27:53,0.0344086021505,0,0.643546483025
2015-02-28 23:32:53,0.0150537634409,0,0.652335090199
2015-02-28 23:37:53,0.0387096774194,0,0.634680975575
2015-02-28 23:42:53,0.0150537634409,0,0.67883926335
2015-02-28 23:47:53,0.00645161290323,0,0.738355262112
2015-02-28 23:52:53,0.0258064516129,0,0.784440441183
2015-02-28 23:57:53,0.0215053763441,0,0.765834340362
2015-03-01 00:02:53,0.0279569892473,0,0.750331010649
2015-03-01 00:07:53,0.0344086021505,0,0.765834340362
2015-03-01 00:12:53,0.0193548387097,0,0.773381466544
2015-03-01 00:17:53,0.010752688172,0,0.812355028517
2015-03-01 00:22:53,0.0215053763441,0,0.80215930815
2015-03-01 00:27:53,0.0150537634409,0,0.837918257814
2015-03-01 00:32:53,0.010752688172,0,0.843936885397
2015-03-01 00:37:53,0.0193548387097,0,0.825433701241
2015-03-01 00:42:53,0.0279569892473,0,0.82221957164
2015-03-01 00:47:53,0.0301075268817,0,0.808993101263
2015-03-01 00:52:53,0.0193548387097,0,0.82221957164
2015-03-01 00:57:53,0.0172043010753,0,0.846890250448
2015-03-01 01:02:53,0.0258064516129,0,0.837918257814
2015-03-01 01:07:53,0.00860215053763,0,0.840946222585
2015-03-01 01:12:53,0.0236559139785,0,0.837918257814
2015-03-01 01:17:53,0.0236559139785,0,0.825433701241
2015-03-01 01:22:53,0.0236559139785,0,0.805594484735
2015-03-01 01:27:53,0.0387096774194,0,0.773381466544
2015-03-01 01:32:53,0.0129032258065,0,0.798687713446
2015-03-01 01:37:53,0.010752688172,0,0.828610683386
2015-03-01 01:42:53,0.0172043010753,0,0.831750463339
2015-03-01 01:47:53,0.0193548387097,0,0.828610683386
2015-03-01 01:52:53,0.010752688172,0,0.849806333312
2015-03-01 01:57:53,0.0322580645161,0,0.815680149925
2015-03-01 02:02:53,0.0279569892473,0,0.808993101263
2015-03-01 02:07:53,0.0129032258065,0,0.825433701241
2015-03-01 02:12:53,0.0301075268817,0,0.815680149925
2015-03-01 02:17:53,0.0150537634409,0,0.849806333312
2015-03-01 02:22:53,0.00215053763441,0,0.863828836836
2015-03-01 02:27:53,0.0172043010753,0,0.855526770743
2015-03-01 02:32:53,0.0193548387097,0,0.852685160788
2015-03-01 02:37:53,0.010752688172,0,0.863828836836
2015-03-01 02:42:53,0.0129032258065,0,0.861098543953
2015-03-01 02:47:53,0.0215053763441,0,0.874381379675
2015-03-01 02:52:53,0.0129032258065,0,0.891447575701
2015-03-01 02:57:53,0.0129032258065,0,0.891447575701
2015-03-01 03:02:53,0.0215053763441,0,0.900416460991
2015-03-01 03:07:53,0.0344086021505,0,0.879437986784
2015-03-01 03:12:53,0.0172043010753,0,0.861098543953
2015-03-01 03:17:53,0.0193548387097,0,0.858331211957
2015-03-01 03:22:53,0.010752688172,0,0.86917863751
2015-03-01 03:27:53,0.0344086021505,0,0.837918257814
2015-03-01 03:32:53,0.0129032258065,0,0.837918257814