timestamp,value,is_anomaly,anomaly_score,S(t)_reward_low_FP_rate,S(t)_reward_low_FN_rate,S(t)_standard,predicted_anomaly
2015-02-26 21:42:53,0.00356983489514,0,0.5,0.0,0.0,0.0,0
2015-02-26 21:47:53,0.00356983489514,0,0.5,0.0,0.0,0.0,0
2015-02-26 21:52:53,0.00223114680946,0,0.5,0.0,0.0,0.0,0
2015-02-26 21:57:53,0.0058009817046,0,0.5,0.0,0.0,0.0,0
2015-02-26 22:02:53,0.00981704596162,0,0.5,0.0,0.0,0.0,0
2015-02-26 22:07:53,0.00758589915216,0,0.5,0.0,0.0,0.0,0
2015-02-26 22:12:53,0.0053547523427,0,0.5,0.0,0.0,0.0,0
2015-02-26 22:17:53,0.00312360553324,0,0.5,0.0,0.0,0.0,0
2015-02-26 22:22:53,0.00446229361892,0,0.5,0.0,0.0,0.0,0
2015-02-26 22:27:53,0.0058009817046,0,0.5,0.0,0.0,0.0,0
2015-02-26 22:32:53,0.00267737617135,0,0.5,0.0,0.0,0.0,0
2015-02-26 22:37:53,0.00446229361892,0,0.5,0.0,0.0,0.0,0
2015-02-26 22:42:53,0.00758589915216,0,0.5,0.0,0.0,0.0,0
2015-02-26 22:47:53,0.00356983489514,0,0.5,0.0,0.0,0.0,0
2015-02-26 22:52:53,0.00312360553324,0,0.5,0.0,0.0,0.0,0
2015-02-26 22:57:53,0.00490852298081,0,0.5,0.0,0.0,0.0,0
2015-02-26 23:02:53,0.00490852298081,0,0.5,0.0,0.0,0.0,0
2015-02-26 23:07:53,0.00446229361892,0,0.5,0.0,0.0,0.0,0
2015-02-26 23:12:53,0.00267737617135,0,0.5,0.0,0.0,0.0,0
2015-02-26 23:17:53,0.00312360553324,0,0.5,0.0,0.0,0.0,0
2015-02-26 23:22:53,0.00713966979027,0,0.5,0.0,0.0,0.0,0
2015-02-26 23:27:53,0.00223114680946,0,0.5,0.0,0.0,0.0,0
2015-02-26 23:32:53,0.00490852298081,0,0.5,0.0,0.0,0.0,0
2015-02-26 23:37:53,0.00401606425703,0,0.5,0.0,0.0,0.0,0
2015-02-26 23:42:53,0.00981704596162,0,0.5,0.0,0.0,0.0,0
2015-02-26 23:47:53,0.00178491744757,0,0.5,0.0,0.0,0.0,0
2015-02-26 23:52:53,0.00624721106649,0,0.5,0.0,0.0,0.0,0
2015-02-26 23:57:53,0.00937081659973,0,0.5,0.0,0.0,0.0,0
2015-02-27 00:02:53,0.00401606425703,0,0.5,0.0,0.0,0.0,0
2015-02-27 00:07:53,0.00401606425703,0,0.5,0.0,0.0,0.0,0
2015-02-27 00:12:53,0.00267737617135,0,0.5,0.0,0.0,0.0,0
2015-02-27 00:17:53,0.00312360553324,0,0.5,0.0,0.0,0.0,0
2015-02-27 00:22:53,0.00312360553324,0,0.5,0.0,0.0,0.0,0
2015-02-27 00:27:53,0.00267737617135,0,0.5,0.0,0.0,0.0,0
2015-02-27 00:32:53,0.00669344042838,0,0.5,0.0,0.0,0.0,0
2015-02-27 00:37:53,0.00446229361892,0,0.5,0.0,0.0,0.0,0
2015-02-27 00:42:53,0.00312360553324,0,0.5,0.0,0.0,0.0,0
2015-02-27 00:47:53,0.00267737617135,0,0.5,0.0,0.0,0.0,0
2015-02-27 00:52:53,0.00401606425703,0,0.5,0.0,0.0,0.0,0
2015-02-27 00:57:53,0.00356983489514,0,0.5,0.0,0.0,0.0,0
2015-02-27 01:02:53,0.0058009817046,0,0.5,0.0,0.0,0.0,0
2015-02-27 01:07:53,0.00312360553324,0,0.5,0.0,0.0,0.0,0
2015-02-27 01:12:53,0.00223114680946,0,0.5,0.0,0.0,0.0,0
2015-02-27 01:17:53,0.00312360553324,0,0.5,0.0,0.0,0.0,0
2015-02-27 01:22:53,0.00713966979027,0,0.5,0.0,0.0,0.0,0
2015-02-27 01:27:53,0.00312360553324,0,0.5,0.0,0.0,0.0,0
2015-02-27 01:32:53,0.0053547523427,0,0.5,0.0,0.0,0.0,0
2015-02-27 01:37:53,0.00446229361892,0,0.5,0.0,0.0,0.0,0
2015-02-27 01:42:53,0.00312360553324,0,0.5,0.0,0.0,0.0,0
2015-02-27 01:47:53,0.00401606425703,0,0.5,0.0,0.0,0.0,0
2015-02-27 01:52:53,0.00490852298081,0,0.5,0.0,0.0,0.0,0
2015-02-27 01:57:53,0.0116019634092,0,0.5,0.0,0.0,0.0,0
2015-02-27 02:02:53,0.0058009817046,0,0.5,0.0,0.0,0.0,0
2015-02-27 02:07:53,0.00312360553324,0,0.5,0.0,0.0,0.0,0
2015-02-27 02:12:53,0.00401606425703,0,0.5,0.0,0.0,0.0,0
2015-02-27 02:17:53,0.00446229361892,0,0.5,0.0,0.0,0.0,0
2015-02-27 02:22:53,0.00624721106649,0,0.5,0.0,0.0,0.0,0
2015-02-27 02:27:53,0.00981704596162,0,0.5,0.0,0.0,0.0,0
2015-02-27 02:32:53,0.00267737617135,0,0.5,0.0,0.0,0.0,0
2015-02-27 02:37:53,0.00356983489514,0,0.5,0.0,0.0,0.0,0
2015-02-27 02:42:53,0.00267737617135,0,0.5,0.0,0.0,0.0,0
2015-02-27 02:47:53,0.00624721106649,0,0.5,0.0,0.0,0.0,0
2015-02-27 02:52:53,0.0116019634092,0,0.5,0.0,0.0,0.0,0
2015-02-27 02:57:53,0.00223114680946,0,0.5,0.0,0.0,0.0,0
2015-02-27 03:02:53,0.00178491744757,0,0.5,0.0,0.0,0.0,0
2015-02-27 03:07:53,0.00847835787595,0,0.5,0.0,0.0,0.0,0
2015-02-27 03:12:53,0.00803212851406,0,0.5,0.0,0.0,0.0,0
2015-02-27 03:17:53,0.00624721106649,0,0.5,0.0,0.0,0.0,0
2015-02-27 03:22:53,0.00669344042838,0,0.5,0.0,0.0,0.0,0
2015-02-27 03:27:53,0.0138331102187,0,0.5,0.0,0.0,0.0,0
2015-02-27 03:32:53,0.0053547523427,0,0.5,0.0,0.0,0.0,0
2015-02-27 03:37:53,0.00356983489514,0,0.5,0.0,0.0,0.0,0
2015-02-27 03:42:53,0.0053547523427,0,0.5,0.0,0.0,0.0,0
2015-02-27 03:47:53,0.00446229361892,0,0.5,0.0,0.0,0.0,0
2015-02-27 03:52:53,0.00356983489514,0,0.5,0.0,0.0,0.0,0
2015-02-27 03:57:53,0.00624721106649,0,0.5,0.0,0.0,0.0,0
2015-02-27 04:02:53,0.00446229361892,0,0.5,0.0,0.0,0.0,0
2015-02-27 04:07:53,0.00401606425703,0,0.5,0.0,0.0,0.0,0
2015-02-27 04:12:53,0.00267737617135,0,0.5,0.0,0.0,0.0,0
2015-02-27 04:17:53,0.00401606425703,0,0.5,0.0,0.0,0.0,0
2015-02-27 04:22:53,0.00624721106649,0,0.5,0.0,0.0,0.0,0
2015-02-27 04:27:53,0.00356983489514,0,0.5,0.0,0.0,0.0,0
2015-02-27 04:32:53,0.00446229361892,0,0.5,0.0,0.0,0.0,0
2015-02-27 04:37:53,0.00446229361892,0,0.5,0.0,0.0,0.0,0
2015-02-27 04:42:53,0.00356983489514,0,0.5,0.0,0.0,0.0,0
2015-02-27 04:47:53,0.00356983489514,0,0.5,0.0,0.0,0.0,0
2015-02-27 04:52:53,0.00356983489514,0,0.5,0.0,0.0,0.0,0
2015-02-27 04:57:53,0.00223114680946,0,0.5,0.0,0.0,0.0,0
2015-02-27 05:02:53,0.00446229361892,0,0.5,0.0,0.0,0.0,0
2015-02-27 05:07:53,0.00178491744757,0,0.5,0.0,0.0,0.0,0
2015-02-27 05:12:53,0.0107095046854,0,0.5,0.0,0.0,0.0,0
2015-02-27 05:17:53,0.0240963855422,0,0.5,0.0,0.0,0.0,0
2015-02-27 05:22:53,0.0365908076751,0,0.5,0.0,0.0,0.0,0
2015-02-27 05:27:53,0.0111557340473,0,0.5,0.0,0.0,0.0,0
2015-02-27 05:32:53,0.00847835787595,0,0.5,0.0,0.0,0.0,0
2015-02-27 05:37:53,0.0116019634092,0,0.5,0.0,0.0,0.0,0
2015-02-27 05:42:53,0.00312360553324,0,0.5,0.0,0.0,0.0,0
2015-02-27 05:47:53,0.00490852298081,0,0.5,0.0,0.0,0.0,0
2015-02-27 05:52:53,0.00356983489514,0,0.5,0.0,0.0,0.0,0
2015-02-27 05:57:53,0.00803212851406,0,0.5,0.0,0.0,0.0,0
2015-02-27 06:02:53,0.00356983489514,0,0.5,0.0,0.0,0.0,0
2015-02-27 06:07:53,0.00312360553324,0,0.5,0.0,0.0,0.0,0
2015-02-27 06:12:53,0.0053547523427,0,0.5,0.0,0.0,0.0,0
2015-02-27 06:17:53,0.00356983489514,0,0.5,0.0,0.0,0.0,0
2015-02-27 06:22:53,0.00356983489514,0,0.5,0.0,0.0,0.0,0
2015-02-27 06:27:53,0.00401606425703,0,0.5,0.0,0.0,0.0,0
2015-02-27 06:32:53,0.00178491744757,0,0.5,0.0,0.0,0.0,0
2015-02-27 06:37:53,0.00267737617135,0,0.5,0.0,0.0,0.0,0
2015-02-27 06:42:53,0.00312360553324,0,0.5,0.0,0.0,0.0,0
2015-02-27 06:47:53,0.00223114680946,0,0.5,0.0,0.0,0.0,0
2015-02-27 06:52:53,0.00490852298081,0,0.5,0.0,0.0,0.0,0
2015-02-27 06:57:53,0.00178491744757,0,0.5,0.0,0.0,0.0,0
2015-02-27 07:02:53,0.00446229361892,0,0.5,0.0,0.0,0.0,0
2015-02-27 07:07:53,0.00267737617135,0,0.5,0.0,0.0,0.0,0
2015-02-27 07:12:53,0.00223114680946,0,0.5,0.0,0.0,0.0,0
2015-02-27 07:17:53,0.000892458723784,0,0.5,0.0,0.0,0.0,0
2015-02-27 07:22:53,0.00446229361892,0,0.5,0.0,0.0,0.0,0
2015-02-27 07:27:53,0.00401606425703,0,0.5,0.0,0.0,0.0,0
2015-02-27 07:32:53,0.00267737617135,0,0.5,0.0,0.0,0.0,0
2015-02-27 07:37:53,0.00133868808568,0,0.5,0.0,0.0,0.0,0
2015-02-27 07:42:53,0.00133868808568,0,0.5,0.0,0.0,0.0,0
2015-02-27 07:47:53,0.000892458723784,0,0.5,0.0,0.0,0.0,0
2015-02-27 07:52:53,0.00178491744757,0,0.5,0.0,0.0,0.0,0
2015-02-27 07:57:53,0.00267737617135,0,0.5,0.0,0.0,0.0,0
2015-02-27 08:02:53,0.00267737617135,0,0.5,0.0,0.0,0.0,0
2015-02-27 08:07:53,0.00223114680946,0,0.5,0.0,0.0,0.0,0
2015-02-27 08:12:53,0.0053547523427,0,0.5,0.0,0.0,0.0,0
2015-02-27 08:17:53,0.00312360553324,0,0.5,0.0,0.0,0.0,0
2015-02-27 08:22:53,0.00267737617135,0,0.5,0.0,0.0,0.0,0
2015-02-27 08:27:53,0.00267737617135,0,0.5,0.0,0.0,0.0,0
2015-02-27 08:32:53,0.00312360553324,0,0.5,0.0,0.0,0.0,0
2015-02-27 08:37:53,0.00178491744757,0,0.5,0.0,0.0,0.0,0
2015-02-27 08:42:53,0.00133868808568,0,0.5,0.0,0.0,0.0,0
2015-02-27 08:47:53,0.00133868808568,0,0.5,0.0,0.0,0.0,0
2015-02-27 08:52:53,0.00178491744757,0,0.5,0.0,0.0,0.0,0
2015-02-27 08:57:53,0.0058009817046,0,0.5,0.0,0.0,0.0,0
2015-02-27 09:02:53,0.00356983489514,0,0.5,0.0,0.0,0.0,0
2015-02-27 09:07:53,0.00223114680946,0,0.5,0.0,0.0,0.0,0
2015-02-27 09:12:53,0.00401606425703,0,0.5,0.0,0.0,0.0,0
2015-02-27 09:17:53,0.00446229361892,0,0.5,0.0,0.0,0.0,0
2015-02-27 09:22:53,0.00312360553324,0,0.5,0.0,0.0,0.0,0
2015-02-27 09:27:53,0.00133868808568,0,0.5,0.0,0.0,0.0,0
2015-02-27 09:32:53,0.00223114680946,0,0.5,0.0,0.0,0.0,0
2015-02-27 09:37:53,0.00267737617135,0,0.5,0.0,0.0,0.0,0
2015-02-27 09:42:53,0.00178491744757,0,0.5,0.0,0.0,0.0,0
2015-02-27 09:47:53,0.00133868808568,0,0.5,0.0,0.0,0.0,0
2015-02-27 09:52:53,0.00223114680946,0,0.5,0.0,0.0,0.0,0
2015-02-27 09:57:53,0.00312360553324,0,0.5,0.0,0.0,0.0,0
2015-02-27 10:02:53,0.00267737617135,0,0.5,0.0,0.0,0.0,0
2015-02-27 10:07:53,0.00312360553324,0,0.5,0.0,0.0,0.0,0
2015-02-27 10:12:53,0.000892458723784,0,0.5,0.0,0.0,0.0,0
2015-02-27 10:17:53,0.00669344042838,0,0.5,0.0,0.0,0.0,0
2015-02-27 10:22:53,0.0053547523427,0,0.5,0.0,0.0,0.0,0
2015-02-27 10:27:53,0.00267737617135,0,0.5,0.0,0.0,0.0,0
2015-02-27 10:32:53,0.00223114680946,0,0.5,0.0,0.0,0.0,0
2015-02-27 10:37:53,0.00178491744757,0,0.5,0.0,0.0,0.0,0
2015-02-27 10:42:53,0.00312360553324,0,0.5,0.0,0.0,0.0,0
2015-02-27 10:47:53,0.00267737617135,0,0.5,0.0,0.0,0.0,0
2015-02-27 10:52:53,0.00133868808568,0,0.5,0.0,0.0,0.0,0
2015-02-27 10:57:53,0.00401606425703,0,0.5,0.0,0.0,0.0,0
2015-02-27 11:02:53,0.00312360553324,0,0.5,0.0,0.0,0.0,0
2015-02-27 11:07:53,0.00446229361892,0,0.5,0.0,0.0,0.0,0
2015-02-27 11:12:53,0.00267737617135,0,0.5,0.0,0.0,0.0,0
2015-02-27 11:17:53,0.00356983489514,0,0.5,0.0,0.0,0.0,0
2015-02-27 11:22:53,0.00356983489514,0,0.5,0.0,0.0,0.0,0
2015-02-27 11:27:53,0.00669344042838,0,0.5,0.0,0.0,0.0,0
2015-02-27 11:32:53,0.00401606425703,0,0.5,0.0,0.0,0.0,0
2015-02-27 11:37:53,0.00267737617135,0,0.5,0.0,0.0,0.0,0
2015-02-27 11:42:53,0.00446229361892,0,0.5,0.0,0.0,0.0,0
2015-02-27 11:47:53,0.00490852298081,0,0.5,0.0,0.0,0.0,0
2015-02-27 11:52:53,0.00446229361892,0,0.5,0.0,0.0,0.0,0
2015-02-27 11:57:53,0.00133868808568,0,0.5,0.0,0.0,0.0,0
2015-02-27 12:02:53,0.00267737617135,0,0.5,0.0,0.0,0.0,0
2015-02-27 12:07:53,0.00446229361892,0,0.5,0.0,0.0,0.0,0
2015-02-27 12:12:53,0.00446229361892,0,0.5,0.0,0.0,0.0,0
2015-02-27 12:17:53,0.00267737617135,0,0.5,0.0,0.0,0.0,0
2015-02-27 12:22:53,0.00178491744757,0,0.5,0.0,0.0,0.0,0
2015-02-27 12:27:53,0.00490852298081,0,0.5,0.0,0.0,0.0,0
2015-02-27 12:32:53,0.00223114680946,0,0.5,0.0,0.0,0.0,0
2015-02-27 12:37:53,0.00223114680946,0,0.5,0.0,0.0,0.0,0
2015-02-27 12:42:53,0.00267737617135,0,0.5,0.0,0.0,0.0,0
2015-02-27 12:47:53,0.00312360553324,0,0.5,0.0,0.0,0.0,0
2015-02-27 12:52:53,0.00401606425703,0,0.5,0.0,0.0,0.0,0
2015-02-27 12:57:53,0.00267737617135,0,0.5,0.0,0.0,0.0,0
2015-02-27 13:02:53,0.00312360553324,0,0.5,0.0,0.0,0.0,0
2015-02-27 13:07:53,0.00401606425703,0,0.5,0.0,0.0,0.0,0
2015-02-27 13:12:53,0.00446229361892,0,0.5,0.0,0.0,0.0,0
2015-02-27 13:17:53,0.00624721106649,0,0.5,0.0,0.0,0.0,0
2015-02-27 13:22:53,0.00490852298081,0,0.5,0.0,0.0,0.0,0
2015-02-27 13:27:53,0.00669344042838,0,0.5,0.0,0.0,0.0,0
2015-02-27 13:32:53,0.00937081659973,0,0.5,0.0,0.0,0.0,0
2015-02-27 13:37:53,0.00669344042838,0,0.5,0.0,0.0,0.0,0
2015-02-27 13:42:53,0.00223114680946,0,0.5,0.0,0.0,0.0,0
2015-02-27 13:47:53,0.00624721106649,0,0.5,0.0,0.0,0.0,0
2015-02-27 13:52:53,0.00847835787595,0,0.5,0.0,0.0,0.0,0
2015-02-27 13:57:53,0.00624721106649,0,0.5,0.0,0.0,0.0,0
2015-02-27 14:02:53,0.00312360553324,0,0.5,0.0,0.0,0.0,0
2015-02-27 14:07:53,0.00312360553324,0,0.5,0.0,0.0,0.0,0
2015-02-27 14:12:53,0.00356983489514,0,0.5,0.0,0.0,0.0,0
2015-02-27 14:17:53,0.00401606425703,0,0.5,0.0,0.0,0.0,0
2015-02-27 14:22:53,0.00669344042838,0,0.5,0.0,0.0,0.0,0
2015-02-27 14:27:53,0.00847835787595,0,0.5,0.0,0.0,0.0,0
2015-02-27 14:32:53,0.00490852298081,0,0.5,0.0,0.0,0.0,0
2015-02-27 14:37:53,0.00490852298081,0,0.5,0.0,0.0,0.0,0
2015-02-27 14:42:53,0.00803212851406,0,0.5,0.0,0.0,0.0,0
2015-02-27 14:47:53,0.00401606425703,0,0.5,0.0,0.0,0.0,0
2015-02-27 14:52:53,0.00267737617135,0,0.5,0.0,0.0,0.0,0
2015-02-27 14:57:53,0.00312360553324,0,0.5,0.0,0.0,0.0,0
2015-02-27 15:02:53,0.00624721106649,0,0.5,0.0,0.0,0.0,0
2015-02-27 15:07:53,0.00223114680946,0,0.5,0.0,0.0,0.0,0
2015-02-27 15:12:53,0.00267737617135,0,0.5,0.0,0.0,0.0,0
2015-02-27 15:17:53,0.0053547523427,0,0.5,0.0,0.0,0.0,0
2015-02-27 15:22:53,0.00758589915216,0,0.5,0.0,0.0,0.0,0
2015-02-27 15:27:53,0.00624721106649,0,0.5,0.0,0.0,0.0,0
2015-02-27 15:32:53,0.00892458723784,0,0.5,0.0,0.0,0.0,0
2015-02-27 15:37:53,0.00401606425703,0,0.5,0.0,0.0,0.0,0
2015-02-27 15:42:53,0.00892458723784,0,0.5,0.0,0.0,0.0,0
2015-02-27 15:47:53,0.00669344042838,0,0.5,0.0,0.0,0.0,0
2015-02-27 15:52:53,0.00133868808568,0,0.5,0.0,0.0,0.0,0
2015-02-27 15:57:53,0.00490852298081,0,0.5,0.0,0.0,0.0,0
2015-02-27 16:02:53,0.00446229361892,0,0.5,0.0,0.0,0.0,0
2015-02-27 16:07:53,0.00892458723784,0,0.5,0.0,0.0,0.0,0
2015-02-27 16:12:53,0.00669344042838,0,0.5,0.0,0.0,0.0,0
2015-02-27 16:17:53,0.00446229361892,0,0.5,0.0,0.0,0.0,0
2015-02-27 16:22:53,0.00847835787595,0,0.5,0.0,0.0,0.0,0
2015-02-27 16:27:53,0.00669344042838,0,0.5,0.0,0.0,0.0,0
2015-02-27 16:32:53,0.00758589915216,0,0.5,0.0,0.0,0.0,0
2015-02-27 16:37:53,0.00356983489514,0,0.5,0.0,0.0,0.0,0
2015-02-27 16:42:53,0.00401606425703,0,0.5,0.0,0.0,0.0,0
2015-02-27 16:47:53,0.00669344042838,0,0.5,0.0,0.0,0.0,0
2015-02-27 16:52:53,0.00803212851406,0,0.5,0.0,0.0,0.0,0
2015-02-27 16:57:53,0.00847835787595,0,0.5,0.0,0.0,0.0,0
2015-02-27 17:02:53,0.00803212851406,0,0.5,0.0,0.0,0.0,0
2015-02-27 17:07:53,0.0058009817046,0,0.5,0.0,0.0,0.0,0
2015-02-27 17:12:53,0.00267737617135,0,0.5,0.0,0.0,0.0,0
2015-02-27 17:17:53,0.00401606425703,0,0.5,0.0,0.0,0.0,0
2015-02-27 17:22:53,0.00356983489514,0,0.5,0.0,0.0,0.0,0
2015-02-27 17:27:53,0.00624721106649,0,0.5,0.0,0.0,0.0,0
2015-02-27 17:32:53,0.00446229361892,0,0.5,0.0,0.0,0.0,0
2015-02-27 17:37:53,0.00624721106649,0,0.5,0.0,0.0,0.0,0
2015-02-27 17:42:53,0.00446229361892,0,0.5,0.0,0.0,0.0,0
2015-02-27 17:47:53,0.00669344042838,0,0.5,0.0,0.0,0.0,0
2015-02-27 17:52:53,0.00401606425703,0,0.5,0.0,0.0,0.0,0
2015-02-27 17:57:53,0.00981704596162,0,0.5,0.0,0.0,0.0,0
2015-02-27 18:02:53,0.00981704596162,0,0.5,0.0,0.0,0.0,0
2015-02-27 18:07:53,0.00713966979027,0,0.5,0.0,0.0,0.0,0
2015-02-27 18:12:53,0.00312360553324,0,0.5,0.0,0.0,0.0,0
2015-02-27 18:17:53,0.0058009817046,0,0.5,0.0,0.0,0.0,0
2015-02-27 18:22:53,0.00713966979027,0,0.5,0.0,0.0,0.0,0
2015-02-27 18:27:53,0.00624721106649,0,0.5,0.0,0.0,0.0,0
2015-02-27 18:32:53,0.00892458723784,0,0.5,0.0,0.0,0.0,0
2015-02-27 18:37:53,0.00401606425703,0,0.5,0.0,0.0,0.0,0
2015-02-27 18:42:53,0.00624721106649,0,0.5,0.0,0.0,0.0,0
2015-02-27 18:47:53,0.00624721106649,0,0.5,0.0,0.0,0.0,0
2015-02-27 18:52:53,0.00892458723784,0,0.5,0.0,0.0,0.0,0
2015-02-27 18:57:53,0.00624721106649,0,0.5,0.0,0.0,0.0,0
2015-02-27 19:02:53,0.00892458723784,0,0.5,0.0,0.0,0.0,0
2015-02-27 19:07:53,0.00758589915216,0,0.5,0.0,0.0,0.0,0
2015-02-27 19:12:53,0.00892458723784,0,0.5,0.0,0.0,0.0,0
2015-02-27 19:17:53,0.0107095046854,0,0.5,0.0,0.0,0.0,0
2015-02-27 19:22:53,0.00356983489514,0,0.5,0.0,0.0,0.0,0
2015-02-27 19:27:53,0.00713966979027,0,0.5,0.0,0.0,0.0,0
2015-02-27 19:32:53,0.00312360553324,0,0.5,0.0,0.0,0.0,0
2015-02-27 19:37:53,0.00490852298081,0,0.5,0.0,0.0,0.0,0
2015-02-27 19:42:53,0.00312360553324,0,0.5,0.0,0.0,0.0,0
2015-02-27 19:47:53,0.00446229361892,0,0.5,0.0,0.0,0.0,0
2015-02-27 19:52:53,0.00267737617135,0,0.5,0.0,0.0,0.0,0
2015-02-27 19:57:53,0.00401606425703,0,0.5,0.0,0.0,0.0,0
2015-02-27 20:02:53,0.00401606425703,0,0.5,0.0,0.0,0.0,0
2015-02-27 20:07:53,0.00446229361892,0,0.5,0.0,0.0,0.0,0
2015-02-27 20:12:53,0.00267737617135,0,0.5,0.0,0.0,0.0,0
2015-02-27 20:17:53,0.00446229361892,0,0.5,0.0,0.0,0.0,0
2015-02-27 20:22:53,0.00937081659973,0,0.5,0.0,0.0,0.0,0
2015-02-27 20:27:53,0.00490852298081,0,0.5,0.0,0.0,0.0,0
2015-02-27 20:32:53,0.0053547523427,0,0.5,0.0,0.0,0.0,0
2015-02-27 20:37:53,0.00401606425703,0,0.5,0.0,0.0,0.0,0
2015-02-27 20:42:53,0.00758589915216,0,0.5,0.0,0.0,0.0,0
2015-02-27 20:47:53,0.00669344042838,0,0.5,0.0,0.0,0.0,0
2015-02-27 20:52:53,0.00178491744757,0,0.5,0.0,0.0,0.0,0
2015-02-27 20:57:53,0.00713966979027,0,0.5,0.0,0.0,0.0,0
2015-02-27 21:02:53,0.00490852298081,0,0.5,0.0,0.0,0.0,0
2015-02-27 21:07:53,0.00267737617135,0,0.5,0.0,0.0,0.0,0
2015-02-27 21:12:53,0.00669344042838,0,0.5,0.0,0.0,0.0,0
2015-02-27 21:17:53,0.00267737617135,0,0.5,0.0,0.0,0.0,0
2015-02-27 21:22:53,0.00356983489514,0,0.5,0.0,0.0,0.0,0
2015-02-27 21:27:53,0.00446229361892,0,0.5,0.0,0.0,0.0,0
2015-02-27 21:32:53,0.00312360553324,0,0.5,0.0,0.0,0.0,0
2015-02-27 21:37:53,0.00490852298081,0,0.5,0.0,0.0,0.0,0
2015-02-27 21:42:53,0.0058009817046,0,0.5,0.0,0.0,0.0,0
2015-02-27 21:47:53,0.00624721106649,0,0.5,0.0,0.0,0.0,0
2015-02-27 21:52:53,0.00267737617135,0,0.5,0.0,0.0,0.0,0
2015-02-27 21:57:53,0.00312360553324,0,0.5,0.0,0.0,0.0,0
2015-02-27 22:02:53,0.00356983489514,0,0.5,0.0,0.0,0.0,0
2015-02-27 22:07:53,0.00267737617135,0,0.5,0.0,0.0,0.0,0
2015-02-27 22:12:53,0.000892458723784,0,0.5,0.0,0.0,0.0,0
2015-02-27 22:17:53,0.00356983489514,0,0.5,0.0,0.0,0.0,0
2015-02-27 22:22:53,0.00312360553324,0,0.5,0.0,0.0,0.0,0
2015-02-27 22:27:53,0.00490852298081,0,0.5,0.0,0.0,0.0,0
2015-02-27 22:32:53,0.00803212851406,0,0.5,0.0,0.0,0.0,0
2015-02-27 22:37:53,0.0058009817046,0,0.5,0.0,0.0,0.0,0
2015-02-27 22:42:53,0.00401606425703,0,0.5,0.0,0.0,0.0,0
2015-02-27 22:47:53,0.00490852298081,0,0.5,0.0,0.0,0.0,0
2015-02-27 22:52:53,0.00490852298081,0,0.5,0.0,0.0,0.0,0
2015-02-27 22:57:53,0.0223114680946,0,0.5,0.0,0.0,0.0,0
2015-02-27 23:02:53,0.00490852298081,0,0.5,0.0,0.0,0.0,0
2015-02-27 23:07:53,0.00356983489514,0,0.5,0.0,0.0,0.0,0
2015-02-27 23:12:53,0.00401606425703,0,0.5,0.0,0.0,0.0,0
2015-02-27 23:17:53,0.00356983489514,0,0.5,0.0,0.0,0.0,0
2015-02-27 23:22:53,0.0053547523427,0,0.5,0.0,0.0,0.0,0
2015-02-27 23:27:53,0.0058009817046,0,0.5,0.0,0.0,0.0,0
2015-02-27 23:32:53,0.00223114680946,0,0.5,0.0,0.0,0.0,0
2015-02-27 23:37:53,0.00401606425703,0,0.5,0.0,0.0,0.0,0
2015-02-27 23:42:53,0.00178491744757,0,0.5,0.0,0.0,0.0,0
2015-02-27 23:47:53,0.000446229361892,0,0.5,0.0,0.0,0.0,0
2015-02-27 23:52:53,0.0053547523427,0,0.5,0.0,0.0,0.0,0
2015-02-27 23:57:53,0.00669344042838,0,0.5,0.0,0.0,0.0,0
2015-02-28 00:02:53,0.00356983489514,0,0.5,0.0,0.0,0.0,0
2015-02-28 00:07:53,0.00713966979027,0,0.5,0.0,0.0,0.0,0
2015-02-28 00:12:53,0.00490852298081,0,0.5,0.0,0.0,0.0,0
2015-02-28 00:17:53,0.00446229361892,0,0.5,0.0,0.0,0.0,0
2015-02-28 00:22:53,0.00490852298081,0,0.5,0.0,0.0,0.0,0
2015-02-28 00:27:53,0.00267737617135,0,0.5,0.0,0.0,0.0,0
2015-02-28 00:32:53,0.00178491744757,0,0.5,0.0,0.0,0.0,0
2015-02-28 00:37:53,0.00312360553324,0,0.5,0.0,0.0,0.0,0
2015-02-28 00:42:53,0.00356983489514,0,0.5,0.0,0.0,0.0,0
2015-02-28 00:47:53,0.00401606425703,0,0.5,0.0,0.0,0.0,0
2015-02-28 00:52:53,0.00356983489514,0,0.5,0.0,0.0,0.0,0
2015-02-28 00:57:53,0.0053547523427,0,0.5,0.0,0.0,0.0,0
2015-02-28 01:02:53,0.00223114680946,0,0.5,0.0,0.0,0.0,0
2015-02-28 01:07:53,0.00223114680946,0,0.5,0.0,0.0,0.0,0
2015-02-28 01:12:53,0.00178491744757,0,0.5,0.0,0.0,0.0,0
2015-02-28 01:17:53,0.000892458723784,0,0.5,0.0,0.0,0.0,0
2015-02-28 01:22:53,0.00356983489514,0,0.5,0.0,0.0,0.0,0
2015-02-28 01:27:53,0.00178491744757,0,0.5,0.0,0.0,0.0,0
2015-02-28 01:32:53,0.00178491744757,0,0.5,0.0,0.0,0.0,0
2015-02-28 01:37:53,0.00356983489514,0,0.5,0.0,0.0,0.0,0
2015-02-28 01:42:53,0.00133868808568,0,0.5,0.0,0.0,0.0,0
2015-02-28 01:47:53,0.00446229361892,0,0.5,0.0,0.0,0.0,0
2015-02-28 01:52:53,0.0053547523427,0,0.5,0.0,0.0,0.0,0
2015-02-28 01:57:53,0.00446229361892,0,0.5,0.0,0.0,0.0,0
2015-02-28 02:02:53,0.00133868808568,0,0.5,0.0,0.0,0.0,0
2015-02-28 02:07:53,0.00267737617135,0,0.5,0.0,0.0,0.0,0
2015-02-28 02:12:53,0.00178491744757,0,0.5,0.0,0.0,0.0,0
2015-02-28 02:17:53,0.00133868808568,0,0.5,0.0,0.0,0.0,0
2015-02-28 02:22:53,0.00133868808568,0,0.5,0.0,0.0,0.0,0
2015-02-28 02:27:53,0.00133868808568,0,0.5,0.0,0.0,0.0,0
2015-02-28 02:32:53,0.00312360553324,0,0.5,0.0,0.0,0.0,0
2015-02-28 02:37:53,0.00178491744757,0,0.5,0.0,0.0,0.0,0
2015-02-28 02:42:53,0.00356983489514,0,0.5,0.0,0.0,0.0,0
2015-02-28 02:47:53,0.000892458723784,0,0.5,0.0,0.0,0.0,0
2015-02-28 02:52:53,0.000892458723784,0,0.5,0.0,0.0,0.0,0
2015-02-28 02:57:53,0.000892458723784,0,0.5,0.0,0.0,0.0,0
2015-02-28 03:02:53,0.00446229361892,0,0.5,0.0,0.0,0.0,0
2015-02-28 03:07:53,0.0053547523427,0,0.5,0.0,0.0,0.0,0
2015-02-28 03:12:53,0.00312360553324,0,0.5,0.0,0.0,0.0,0
2015-02-28 03:17:53,0.00178491744757,0,0.5,0.0,0.0,0.0,0
2015-02-28 03:22:53,0.000892458723784,0,0.5,0.0,0.0,0.0,0
2015-02-28 03:27:53,0.00312360553324,0,0.5,0.0,0.0,0.0,0
2015-02-28 03:32:53,0.00312360553324,0,0.5,0.0,0.0,0.0,0
2015-02-28 03:37:53,0.00356983489514,0,0.5,0.0,0.0,0.0,0
2015-02-28 03:42:53,0.00401606425703,0,0.5,0.0,0.0,0.0,0
2015-02-28 03:47:53,0.00312360553324,0,0.5,0.0,0.0,0.0,0
2015-02-28 03:52:53,0.00267737617135,0,0.5,0.0,0.0,0.0,0
2015-02-28 03:57:53,0.00133868808568,0,0.5,0.0,0.0,0.0,0
2015-02-28 04:02:53,0.0,0,0.5,0.0,0.0,0.0,0
2015-02-28 04:07:53,0.00490852298081,0,0.5,0.0,0.0,0.0,0
2015-02-28 04:12:53,0.00133868808568,0,0.5,0.0,0.0,0.0,0
2015-02-28 04:17:53,0.00446229361892,0,0.5,0.0,0.0,0.0,0
2015-02-28 04:22:53,0.00178491744757,0,0.5,0.0,0.0,0.0,0
2015-02-28 04:27:53,0.000892458723784,0,0.5,0.0,0.0,0.0,0
2015-02-28 04:32:53,0.00267737617135,0,0.5,0.0,0.0,0.0,0
2015-02-28 04:37:53,0.00133868808568,0,0.5,0.0,0.0,0.0,0
2015-02-28 04:42:53,0.00133868808568,0,0.5,0.0,0.0,0.0,0
2015-02-28 04:47:53,0.00133868808568,0,0.5,0.0,0.0,0.0,0
2015-02-28 04:52:53,0.00490852298081,0,0.5,0.0,0.0,0.0,0
2015-02-28 04:57:53,0.00401606425703,0,0.5,0.0,0.0,0.0,0
2015-02-28 05:02:53,0.000892458723784,0,0.5,0.0,0.0,0.0,0
2015-02-28 05:07:53,0.000446229361892,0,0.5,0.0,0.0,0.0,0
2015-02-28 05:12:53,0.00178491744757,0,0.5,0.0,0.0,0.0,0
2015-02-28 05:17:53,0.00133868808568,0,0.5,0.0,0.0,0.0,0
2015-02-28 05:22:53,0.00133868808568,0,0.5,0.0,0.0,0.0,0
2015-02-28 05:27:53,0.000892458723784,0,0.5,0.0,0.0,0.0,0
2015-02-28 05:32:53,0.000892458723784,0,0.5,0.0,0.0,0.0,0
2015-02-28 05:37:53,0.00133868808568,0,0.5,0.0,0.0,0.0,0
2015-02-28 05:42:53,0.00223114680946,0,0.5,0.0,0.0,0.0,0
2015-02-28 05:47:53,0.00133868808568,0,0.5,0.0,0.0,0.0,0
2015-02-28 05:52:53,0.000892458723784,0,0.5,0.0,0.0,0.0,0
2015-02-28 05:57:53,0.00178491744757,0,0.5,0.0,0.0,0.0,0
2015-02-28 06:02:53,0.000892458723784,0,0.500198956783,0.0,0.0,0.0,0
2015-02-28 06:07:53,0.000892458723784,0,0.500198974585,0.0,0.0,0.0,0
2015-02-28 06:12:53,0.00178491744757,0,0.500198956783,0.0,0.0,0.0,0
2015-02-28 06:17:53,0.000892458723784,0,0.500198956783,0.0,0.0,0.0,0
2015-02-28 06:22:53,0.00133868808568,0,0.500198938981,0.0,0.0,0.0,0
2015-02-28 06:27:53,0.00223114680946,0,0.500198903376,0.0,0.0,0.0,0
2015-02-28 06:32:53,0.000892458723784,0,0.500198956783,0.0,0.0,0.0,0
2015-02-28 06:37:53,0.000446229361892,0,0.500198992387,0.0,0.0,0.0,0
2015-02-28 06:42:53,0.000446229361892,0,0.500199010189,0.0,0.0,0.0,0
2015-02-28 06:47:53,0.000892458723784,0,0.500199045793,0.0,0.0,0.0,0
2015-02-28 06:52:53,0.00312360553324,0,0.500198956783,0.0,0.0,0.0,0
2015-02-28 06:57:53,0.000446229361892,0,0.500198974585,0.0,0.0,0.0,0
2015-02-28 07:02:53,0.000446229361892,0,0.500199027991,0.0,0.0,0.0,0
2015-02-28 07:07:53,0.0,0,0.500199063596,0.0,0.0,0.0,0
2015-02-28 07:12:53,0.000446229361892,0,0.5001990992,0.0,0.0,0.0,0
2015-02-28 07:17:53,0.00178491744757,0,0.500199117002,0.0,0.0,0.0,0
2015-02-28 07:22:53,0.00267737617135,0,0.500199045793,0.0,0.0,0.0,0
2015-02-28 07:27:53,0.000892458723784,0,0.500199027991,0.0,0.0,0.0,0
2015-02-28 07:32:53,0.00133868808568,0,0.500198992387,0.0,0.0,0.0,0
2015-02-28 07:37:53,0.000892458723784,0,0.500198992387,0.0,0.0,0.0,0
2015-02-28 07:42:53,0.000446229361892,0,0.5001990992,0.0,0.0,0.0,0
2015-02-28 07:47:53,0.0,0,0.500199117002,0.0,0.0,0.0,0
2015-02-28 07:52:53,0.00133868808568,0,0.500199081398,0.0,0.0,0.0,0
2015-02-28 07:57:53,0.00178491744757,0,0.500199010189,0.0,0.0,0.0,0
2015-02-28 08:02:53,0.00133868808568,0,0.500198974585,0.0,0.0,0.0,0
2015-02-28 08:07:53,0.00401606425703,0,0.500198885574,0.0,0.0,0.0,0
2015-02-28 08:12:53,0.00446229361892,0,0.500198814366,0.0,0.0,0.0,0
2015-02-28 08:17:53,0.00356983489514,0,0.500198707553,0.0,0.0,0.0,0
2015-02-28 08:22:53,0.00178491744757,0,0.50019868975,0.0,0.0,0.0,0
2015-02-28 08:27:53,0.000892458723784,0,0.50019868975,0.0,0.0,0.0,0
2015-02-28 08:32:53,0.00223114680946,0,0.500198618542,0.0,0.0,0.0,0
2015-02-28 08:37:53,0.00178491744757,0,0.500198547333,0.0,0.0,0.0,0
2015-02-28 08:42:53,0.00178491744757,0,0.500198529531,0.0,0.0,0.0,0
2015-02-28 08:47:53,0.00312360553324,0,0.500198476125,0.0,0.0,0.0,0
2015-02-28 08:52:53,0.00178491744757,0,0.500198458323,0.0,0.0,0.0,0
2015-02-28 08:57:53,0.00223114680946,0,0.500198529531,0.0,0.0,0.0,0
2015-02-28 09:02:53,0.000892458723784,0,0.500198671948,0.0,0.0,0.0,0
2015-02-28 09:07:53,0.00223114680946,0,0.500198725355,0.0,0.0,0.0,0
2015-02-28 09:12:53,0.00312360553324,0,0.500198671948,0.0,0.0,0.0,0
2015-02-28 09:17:53,0.00223114680946,0,0.500198618542,0.0,0.0,0.0,0
2015-02-28 09:22:53,0.000446229361892,0,0.50019868975,0.0,0.0,0.0,0
2015-02-28 09:27:53,0.00133868808568,0,0.500198707553,0.0,0.0,0.0,0
2015-02-28 09:32:53,0.000892458723784,0,0.500198743157,0.0,0.0,0.0,0
2015-02-28 09:37:53,0.000892458723784,0,0.500198832168,0.0,0.0,0.0,0
2015-02-28 09:42:53,0.00223114680946,0,0.500198814366,0.0,0.0,0.0,0
2015-02-28 09:47:53,0.00178491744757,0,0.500198832168,0.0,0.0,0.0,0
2015-02-28 09:52:53,0.000446229361892,0,0.50019884997,0.0,0.0,0.0,0
2015-02-28 09:57:53,0.00401606425703,0,0.500198778761,0.0,0.0,0.0,0
2015-02-28 10:02:53,0.00133868808568,0,0.50019884997,0.0,0.0,0.0,0
2015-02-28 10:07:53,0.000892458723784,0,0.500198903376,0.0,0.0,0.0,0
2015-02-28 10:12:53,0.00267737617135,0,0.500198814366,0.0,0.0,0.0,0
2015-02-28 10:17:53,0.000892458723784,0,0.500198832168,0.0,0.0,0.0,0
2015-02-28 10:22:53,0.00401606425703,0,0.500198707553,0.0,0.0,0.0,0
2015-02-28 10:27:53,0.00267737617135,0,0.500198636344,0.0,0.0,0.0,0
2015-02-28 10:32:53,0.00356983489514,0,0.500198582938,0.0,0.0,0.0,0
2015-02-28 10:37:53,0.00356983489514,0,0.500198511729,0.0,0.0,0.0,0
2015-02-28 10:42:53,0.00267737617135,0,0.500198422718,0.0,0.0,0.0,0
2015-02-28 10:47:53,0.00490852298081,0,0.500198387114,0.0,0.0,0.0,0
2015-02-28 10:52:53,0.00356983489514,0,0.500198298103,0.0,0.0,0.0,0
2015-02-28 10:57:53,0.00356983489514,0,0.50019819129,0.0,0.0,0.0,0
2015-02-28 11:02:53,0.000446229361892,0,0.500198280301,0.0,0.0,0.0,0
2015-02-28 11:07:53,0.000446229361892,0,0.500198298103,0.0,0.0,0.0,0
2015-02-28 11:12:53,0.00312360553324,0,0.500198333708,0.0,0.0,0.0,0
2015-02-28 11:17:53,0.00267737617135,0,0.500198333708,0.0,0.0,0.0,0
2015-02-28 11:22:53,0.00133868808568,0,0.500198422718,0.0,0.0,0.0,0
2015-02-28 11:27:53,0.00133868808568,0,0.500198511729,0.0,0.0,0.0,0
2015-02-28 11:32:53,0.00133868808568,0,0.500198565135,0.0,0.0,0.0,0
2015-02-28 11:37:53,0.000446229361892,0,0.500198743157,0.0,0.0,0.0,0
2015-02-28 11:42:53,0.000446229361892,0,0.500198867772,0.0,0.0,0.0,0
2015-02-28 11:47:53,0.00133868808568,0,0.500198956783,0.0,0.0,0.0,0
2015-02-28 11:52:53,0.000892458723784,0,0.500198938981,0.0,0.0,0.0,0
2015-02-28 11:57:53,0.00178491744757,0,0.500198885574,0.0,0.0,0.0,0
2015-02-28 12:02:53,0.00133868808568,0,0.500198956783,0.0,0.0,0.0,0
2015-02-28 12:07:53,0.00178491744757,0,0.500198992387,0.0,0.0,0.0,0
2015-02-28 12:12:53,0.000446229361892,0,0.500199027991,0.0,0.0,0.0,0
2015-02-28 12:17:53,0.00133868808568,0,0.500199027991,0.0,0.0,0.0,0
2015-02-28 12:22:53,0.00267737617135,0,0.500198974585,0.0,0.0,0.0,0
2015-02-28 12:27:53,0.00223114680946,0,0.500198903376,0.0,0.0,0.0,0
2015-02-28 12:32:53,0.00178491744757,0,0.50019884997,0.0,0.0,0.0,0
2015-02-28 12:37:53,0.00312360553324,0,0.500198778761,0.0,0.0,0.0,0
2015-02-28 12:42:53,0.00133868808568,0,0.500198760959,0.0,0.0,0.0,0
2015-02-28 12:47:53,0.00178491744757,0,0.500198760959,0.0,0.0,0.0,0
2015-02-28 12:52:53,0.00178491744757,0,0.500198743157,0.0,0.0,0.0,0
2015-02-28 12:57:53,0.00178491744757,0,0.500198743157,0.0,0.0,0.0,0
2015-02-28 13:02:53,0.00267737617135,0,0.500198654146,0.0,0.0,0.0,0
2015-02-28 13:07:53,0.00446229361892,0,0.500198529531,0.0,0.0,0.0,0
2015-02-28 13:12:53,0.00356983489514,0,0.500198493927,0.0,0.0,0.0,0
2015-02-28 13:17:53,0.00223114680946,0,0.500198493927,0.0,0.0,0.0,0
2015-02-28 13:22:53,0.00312360553324,0,0.50019844052,0.0,0.0,0.0,0
2015-02-28 13:27:53,0.00178491744757,0,0.500198493927,0.0,0.0,0.0,0
2015-02-28 13:32:53,0.00178491744757,0,0.500198476125,0.0,0.0,0.0,0
2015-02-28 13:37:53,0.00178491744757,0,0.500198476125,0.0,0.0,0.0,0
2015-02-28 13:42:53,0.00401606425703,0,0.500198387114,0.0,0.0,0.0,0
2015-02-28 13:47:53,0.0053547523427,0,0.500198244697,0.0,0.0,0.0,0
2015-02-28 13:52:53,0.00624721106649,0,0.50019810228,0.0,0.0,0.0,0
2015-02-28 13:57:53,0.00401606425703,0,0.500198120082,0.0,0.0,0.0,0
2015-02-28 14:02:53,0.00356983489514,0,0.500198120082,0.0,0.0,0.0,0
2015-02-28 14:07:53,0.00356983489514,0,0.500198066675,0.0,0.0,0.0,0
2015-02-28 14:12:53,0.00356983489514,0,0.500198048873,0.0,0.0,0.0,0
2015-02-28 14:17:53,0.00133868808568,0,0.500198066675,0.0,0.0,0.0,0
2015-02-28 14:22:53,0.00401606425703,0,0.500197977665,0.0,0.0,0.0,0
2015-02-28 14:27:53,0.00356983489514,0,0.500197906456,0.0,0.0,0.0,0
2015-02-28 14:32:53,0.000446229361892,0,0.500198048873,0.0,0.0,0.0,0
2015-02-28 14:37:53,0.00178491744757,0,0.50019819129,0.0,0.0,0.0,0
2015-02-28 14:42:53,0.00267737617135,0,0.500198333708,0.0,0.0,0.0,0
2015-02-28 14:47:53,0.00312360553324,0,0.500198369312,0.0,0.0,0.0,0
2015-02-28 14:52:53,0.00356983489514,0,0.500198369312,0.0,0.0,0.0,0
2015-02-28 14:57:53,0.00401606425703,0,0.50019835151,0.0,0.0,0.0,0
2015-02-28 15:02:53,0.00401606425703,0,0.500198333708,0.0,0.0,0.0,0
2015-02-28 15:07:53,0.000446229361892,0,0.500198369312,0.0,0.0,0.0,0
2015-02-28 15:12:53,0.00223114680946,0,0.50019844052,0.0,0.0,0.0,0
2015-02-28 15:17:53,0.00356983489514,0,0.50019844052,0.0,0.0,0.0,0
2015-02-28 15:22:53,0.00178491744757,0,0.500198387114,0.0,0.0,0.0,0
2015-02-28 15:27:53,0.00669344042838,0,0.50019819129,0.0,0.0,0.0,0