timestamp,value,is_anomaly,anomaly_score
2015-02-26 21:42:53,0.0340705319785,0,0.5
2015-02-26 21:47:53,0.0257023311417,0,0.5
2015-02-26 21:52:53,0.0328750747161,0,0.5
2015-02-26 21:57:53,0.0382546323969,0,0.5
2015-02-26 22:02:53,0.0555887627017,0,0.5
2015-02-26 22:07:53,0.0621637776449,0,0.5
2015-02-26 22:12:53,0.0531978481769,0,0.5
2015-02-26 22:17:53,0.0520023909145,0,0.5
2015-02-26 22:22:53,0.0340705319785,0,0.5
2015-02-26 22:27:53,0.0406455469217,0,0.5
2015-02-26 22:32:53,0.0382546323969,0,0.5
2015-02-26 22:37:53,0.0364614465033,0,0.5
2015-02-26 22:42:53,0.0436341900777,0,0.5
2015-02-26 22:47:53,0.0472205618649,0,0.5
2015-02-26 22:52:53,0.0478182904961,0,0.5
2015-02-26 22:57:53,0.0454273759713,0,0.5
2015-02-26 23:02:53,0.0292887029289,0,0.5
2015-02-26 23:07:53,0.0352659892409,0,0.5
2015-02-26 23:12:53,0.0328750747161,0,0.5
2015-02-26 23:17:53,0.0286909742977,0,0.5
2015-02-26 23:22:53,0.0245068738793,0,0.5
2015-02-26 23:27:53,0.0292887029289,0,0.5
2015-02-26 23:32:53,0.0376569037657,0,0.5
2015-02-26 23:37:53,0.0215182307233,0,0.5
2015-02-26 23:42:53,0.0251046025105,0,0.5
2015-02-26 23:47:53,0.0298864315601,0,0.5
2015-02-26 23:52:53,0.0209205020921,0,0.5
2015-02-26 23:57:53,0.0245068738793,0,0.5
2015-02-27 00:02:53,0.0233114166169,0,0.5
2015-02-27 00:07:53,0.0286909742977,0,0.5
2015-02-27 00:12:53,0.0185295875672,0,0.5
2015-02-27 00:17:53,0.0209205020921,0,0.5
2015-02-27 00:22:53,0.0191273161984,0,0.5
2015-02-27 00:27:53,0.0215182307233,0,0.5
2015-02-27 00:32:53,0.0221159593545,0,0.5
2015-02-27 00:37:53,0.0370591751345,0,0.5
2015-02-27 00:42:53,0.0245068738793,0,0.5
2015-02-27 00:47:53,0.0304841601913,0,0.5
2015-02-27 00:52:53,0.0388523610281,0,0.5
2015-02-27 00:57:53,0.0233114166169,0,0.5
2015-02-27 01:02:53,0.0334728033473,0,0.5
2015-02-27 01:07:53,0.0251046025105,0,0.5
2015-02-27 01:12:53,0.0370591751345,0,0.5
2015-02-27 01:17:53,0.0274955170353,0,0.5
2015-02-27 01:22:53,0.0274955170353,0,0.5
2015-02-27 01:27:53,0.0370591751345,0,0.5
2015-02-27 01:32:53,0.0245068738793,0,0.5
2015-02-27 01:37:53,0.0239091452481,0,0.5
2015-02-27 01:42:53,0.0280932456665,0,0.5
2015-02-27 01:47:53,0.0286909742977,0,0.5
2015-02-27 01:52:53,0.0257023311417,0,0.5
2015-02-27 01:57:53,0.0245068738793,0,0.5
2015-02-27 02:02:53,0.0328750747161,0,0.5
2015-02-27 02:07:53,0.0537955768081,0,0.5
2015-02-27 02:12:53,0.0472205618649,0,0.5
2015-02-27 02:17:53,0.0340705319785,0,0.5
2015-02-27 02:22:53,0.0257023311417,0,0.5
2015-02-27 02:27:53,0.0233114166169,0,0.5
2015-02-27 02:32:53,0.0340705319785,0,0.5
2015-02-27 02:37:53,0.0334728033473,0,0.5
2015-02-27 02:42:53,0.0609683203825,0,0.5
2015-02-27 02:47:53,0.0508069336521,0,0.5
2015-02-27 02:52:53,0.0472205618649,0,0.5
2015-02-27 02:57:53,0.0490137477585,0,0.5
2015-02-27 03:02:53,0.0358637178721,0,0.5
2015-02-27 03:07:53,0.0280932456665,0,0.5
2015-02-27 03:12:53,0.0257023311417,0,0.5
2015-02-27 03:17:53,0.0292887029289,0,0.5
2015-02-27 03:22:53,0.0358637178721,0,0.5
2015-02-27 03:27:53,0.0328750747161,0,0.5
2015-02-27 03:32:53,0.0376569037657,0,0.5
2015-02-27 03:37:53,0.0340705319785,0,0.5
2015-02-27 03:42:53,0.0364614465033,0,0.5
2015-02-27 03:47:53,0.0352659892409,0,0.5
2015-02-27 03:52:53,0.0209205020921,0,0.5
2015-02-27 03:57:53,0.0412432755529,0,0.5
2015-02-27 04:02:53,0.0286909742977,0,0.5
2015-02-27 04:07:53,0.0280932456665,0,0.5
2015-02-27 04:12:53,0.0263000597729,0,0.5
2015-02-27 04:17:53,0.0280932456665,0,0.5
2015-02-27 04:22:53,0.0304841601913,0,0.5
2015-02-27 04:27:53,0.0322773460849,0,0.5
2015-02-27 04:32:53,0.0245068738793,0,0.5
2015-02-27 04:37:53,0.0316796174537,0,0.5
2015-02-27 04:42:53,0.0292887029289,0,0.5
2015-02-27 04:47:53,0.0137477585176,0,0.5
2015-02-27 04:52:53,0.0185295875672,0,0.5
2015-02-27 04:57:53,0.0227136879857,0,0.5
2015-02-27 05:02:53,0.0340705319785,0,0.5
2015-02-27 05:07:53,0.0334728033473,0,0.5
2015-02-27 05:12:53,0.0418410041841,0,0.5
2015-02-27 05:17:53,0.0340705319785,0,0.5
2015-02-27 05:22:53,0.0382546323969,0,0.5
2015-02-27 05:27:53,0.0472205618649,0,0.5
2015-02-27 05:32:53,0.0388523610281,0,0.5
2015-02-27 05:37:53,0.0418410041841,0,0.5
2015-02-27 05:42:53,0.0304841601913,0,0.5
2015-02-27 05:47:53,0.0257023311417,0,0.5
2015-02-27 05:52:53,0.0358637178721,0,0.5
2015-02-27 05:57:53,0.0292887029289,0,0.5
2015-02-27 06:02:53,0.0221159593545,0,0.5
2015-02-27 06:07:53,0.0322773460849,0,0.5
2015-02-27 06:12:53,0.0346682606097,0,0.5
2015-02-27 06:17:53,0.0400478182905,0,0.5
2015-02-27 06:22:53,0.0430364614465,0,0.5
2015-02-27 06:27:53,0.0292887029289,0,0.5
2015-02-27 06:32:53,0.0268977884041,0,0.5
2015-02-27 06:37:53,0.0286909742977,0,0.5
2015-02-27 06:42:53,0.0173341303048,0,0.5
2015-02-27 06:47:53,0.0137477585176,0,0.5
2015-02-27 06:52:53,0.0155409444112,0,0.5
2015-02-27 06:57:53,0.0167364016736,0,0.5
2015-02-27 07:02:53,0.0161386730424,0,0.5
2015-02-27 07:07:53,0.0107591153616,0,0.5
2015-02-27 07:12:53,0.0221159593545,0,0.5
2015-02-27 07:17:53,0.0209205020921,0,0.5
2015-02-27 07:22:53,0.01494321578,0,0.5
2015-02-27 07:27:53,0.0167364016736,0,0.5
2015-02-27 07:32:53,0.0161386730424,0,0.5
2015-02-27 07:37:53,0.0209205020921,0,0.5
2015-02-27 07:42:53,0.0245068738793,0,0.5
2015-02-27 07:47:53,0.0203227734608,0,0.5
2015-02-27 07:52:53,0.0251046025105,0,0.5
2015-02-27 07:57:53,0.0346682606097,0,0.5
2015-02-27 08:02:53,0.0352659892409,0,0.5
2015-02-27 08:07:53,0.0161386730424,0,0.5
2015-02-27 08:12:53,0.0292887029289,0,0.5
2015-02-27 08:17:53,0.0310818888225,0,0.5
2015-02-27 08:22:53,0.01494321578,0,0.5
2015-02-27 08:27:53,0.0215182307233,0,0.5
2015-02-27 08:32:53,0.0185295875672,0,0.5
2015-02-27 08:37:53,0.0137477585176,0,0.5
2015-02-27 08:42:53,0.0143454871488,0,0.5
2015-02-27 08:47:53,0.00597728631201,0,0.5
2015-02-27 08:52:53,0.0161386730424,0,0.5
2015-02-27 08:57:53,0.0191273161984,0,0.5
2015-02-27 09:02:53,0.0101613867304,0,0.5
2015-02-27 09:07:53,0.0197250448296,0,0.5
2015-02-27 09:12:53,0.0239091452481,0,0.5
2015-02-27 09:17:53,0.01494321578,0,0.5
2015-02-27 09:22:53,0.00956365809922,0,0.5
2015-02-27 09:27:53,0.0143454871488,0,0.5
2015-02-27 09:32:53,0.0221159593545,0,0.5
2015-02-27 09:37:53,0.0203227734608,0,0.5
2015-02-27 09:42:53,0.0358637178721,0,0.5
2015-02-27 09:47:53,0.0340705319785,0,0.5
2015-02-27 09:52:53,0.0370591751345,0,0.5
2015-02-27 09:57:53,0.0334728033473,0,0.5
2015-02-27 10:02:53,0.0406455469217,0,0.5
2015-02-27 10:07:53,0.0322773460849,0,0.5
2015-02-27 10:12:53,0.0292887029289,0,0.5
2015-02-27 10:17:53,0.0251046025105,0,0.5
2015-02-27 10:22:53,0.0233114166169,0,0.5
2015-02-27 10:27:53,0.0298864315601,0,0.5
2015-02-27 10:32:53,0.0280932456665,0,0.5
2015-02-27 10:37:53,0.017931858936,0,0.5
2015-02-27 10:42:53,0.0239091452481,0,0.5
2015-02-27 10:47:53,0.0268977884041,0,0.5
2015-02-27 10:52:53,0.0221159593545,0,0.5
2015-02-27 10:57:53,0.0346682606097,0,0.5
2015-02-27 11:02:53,0.0209205020921,0,0.5
2015-02-27 11:07:53,0.0274955170353,0,0.5
2015-02-27 11:12:53,0.0221159593545,0,0.5
2015-02-27 11:17:53,0.0209205020921,0,0.5
2015-02-27 11:22:53,0.0298864315601,0,0.5
2015-02-27 11:27:53,0.0161386730424,0,0.5
2015-02-27 11:32:53,0.0322773460849,0,0.5
2015-02-27 11:37:53,0.0304841601913,0,0.5
2015-02-27 11:42:53,0.0245068738793,0,0.5
2015-02-27 11:47:53,0.0298864315601,0,0.5
2015-02-27 11:52:53,0.0537955768081,0,0.5
2015-02-27 11:57:53,0.0328750747161,0,0.5
2015-02-27 12:02:53,0.0340705319785,0,0.5
2015-02-27 12:07:53,0.0340705319785,0,0.5
2015-02-27 12:12:53,0.0424387328153,0,0.5
2015-02-27 12:17:53,0.0209205020921,0,0.5
2015-02-27 12:22:53,0.0167364016736,0,0.5
2015-02-27 12:27:53,0.0191273161984,0,0.5
2015-02-27 12:32:53,0.0191273161984,0,0.5
2015-02-27 12:37:53,0.0358637178721,0,0.5
2015-02-27 12:42:53,0.0191273161984,0,0.5
2015-02-27 12:47:53,0.0280932456665,0,0.5
2015-02-27 12:52:53,0.0227136879857,0,0.5
2015-02-27 12:57:53,0.0274955170353,0,0.5
2015-02-27 13:02:53,0.0322773460849,0,0.5
2015-02-27 13:07:53,0.0334728033473,0,0.5
2015-02-27 13:12:53,0.0376569037657,0,0.5
2015-02-27 13:17:53,0.0400478182905,0,0.5
2015-02-27 13:22:53,0.0406455469217,0,0.5
2015-02-27 13:27:53,0.0364614465033,0,0.5
2015-02-27 13:32:53,0.0263000597729,0,0.5
2015-02-27 13:37:53,0.0340705319785,0,0.5
2015-02-27 13:42:53,0.0364614465033,0,0.5
2015-02-27 13:47:53,0.0328750747161,0,0.5
2015-02-27 13:52:53,0.0394500896593,0,0.5
2015-02-27 13:57:53,0.0520023909145,0,0.5
2015-02-27 14:02:53,0.0406455469217,0,0.5
2015-02-27 14:07:53,0.0436341900777,0,0.5
2015-02-27 14:12:53,0.0394500896593,0,0.5
2015-02-27 14:17:53,0.0436341900777,0,0.5
2015-02-27 14:22:53,0.0597728631201,0,0.5
2015-02-27 14:27:53,0.0627615062762,0,0.5
2015-02-27 14:32:53,0.0537955768081,0,0.5
2015-02-27 14:37:53,0.0394500896593,0,0.5
2015-02-27 14:42:53,0.0382546323969,0,0.5
2015-02-27 14:47:53,0.0346682606097,0,0.5
2015-02-27 14:52:53,0.0418410041841,0,0.5
2015-02-27 14:57:53,0.0442319187089,0,0.5
2015-02-27 15:02:53,0.0286909742977,0,0.5
2015-02-27 15:07:53,0.0352659892409,0,0.5
2015-02-27 15:12:53,0.0412432755529,0,0.5
2015-02-27 15:17:53,0.0400478182905,0,0.5
2015-02-27 15:22:53,0.0239091452481,0,0.5
2015-02-27 15:27:53,0.0280932456665,0,0.5
2015-02-27 15:32:53,0.0251046025105,0,0.5
2015-02-27 15:37:53,0.0914524805738,0,0.5
2015-02-27 15:42:53,0.0400478182905,0,0.5
2015-02-27 15:47:53,0.0436341900777,0,0.5
2015-02-27 15:52:53,0.0346682606097,0,0.5
2015-02-27 15:57:53,0.0579796772265,0,0.5
2015-02-27 16:02:53,0.0591751344889,0,0.5
2015-02-27 16:07:53,0.0388523610281,0,0.5
2015-02-27 16:12:53,0.0490137477585,0,0.5
2015-02-27 16:17:53,0.0394500896593,0,0.5
2015-02-27 16:22:53,0.0263000597729,0,0.5
2015-02-27 16:27:53,0.0388523610281,0,0.5
2015-02-27 16:32:53,0.0448296473401,0,0.5
2015-02-27 16:37:53,0.0298864315601,0,0.5
2015-02-27 16:42:53,0.0370591751345,0,0.5
2015-02-27 16:47:53,0.0340705319785,0,0.5
2015-02-27 16:52:53,0.0609683203825,0,0.5
2015-02-27 16:57:53,0.0478182904961,0,0.5
2015-02-27 17:02:53,0.0502092050209,0,0.5
2015-02-27 17:07:53,0.0621637776449,0,0.5
2015-02-27 17:12:53,0.0454273759713,0,0.5
2015-02-27 17:17:53,0.0424387328153,0,0.5
2015-02-27 17:22:53,0.0292887029289,0,0.5
2015-02-27 17:27:53,0.0615660490137,0,0.5
2015-02-27 17:32:53,0.080095636581,0,0.5
2015-02-27 17:37:53,0.0633592349074,0,0.5
2015-02-27 17:42:53,0.0759115361626,0,0.5
2015-02-27 17:47:53,0.0555887627017,0,0.5
2015-02-27 17:52:53,0.0502092050209,0,0.5
2015-02-27 17:57:53,0.0334728033473,0,0.5
2015-02-27 18:02:53,0.0364614465033,0,0.5
2015-02-27 18:07:53,0.0340705319785,0,0.5
2015-02-27 18:12:53,0.0268977884041,0,0.5
2015-02-27 18:17:53,0.0322773460849,0,0.5
2015-02-27 18:22:53,0.0382546323969,0,0.5
2015-02-27 18:27:53,0.0442319187089,0,0.5
2015-02-27 18:32:53,0.0334728033473,0,0.5
2015-02-27 18:37:53,0.0436341900777,0,0.5
2015-02-27 18:42:53,0.0502092050209,0,0.5
2015-02-27 18:47:53,0.0340705319785,0,0.5
2015-02-27 18:52:53,0.0376569037657,0,0.5
2015-02-27 18:57:53,0.0418410041841,0,0.5
2015-02-27 19:02:53,0.0442319187089,0,0.5
2015-02-27 19:07:53,0.0340705319785,0,0.5
2015-02-27 19:12:53,0.0370591751345,0,0.5
2015-02-27 19:17:53,0.0412432755529,0,0.5
2015-02-27 19:22:53,0.0364614465033,0,0.5
2015-02-27 19:27:53,0.0394500896593,0,0.5
2015-02-27 19:32:53,0.0388523610281,0,0.5
2015-02-27 19:37:53,0.0328750747161,0,0.5
2015-02-27 19:42:53,0.0322773460849,0,0.5
2015-02-27 19:47:53,0.0328750747161,0,0.5
2015-02-27 19:52:53,0.0316796174537,0,0.5
2015-02-27 19:57:53,0.0400478182905,0,0.5
2015-02-27 20:02:53,0.0418410041841,0,0.5
2015-02-27 20:07:53,0.0454273759713,0,0.5
2015-02-27 20:12:53,0.0400478182905,0,0.5
2015-02-27 20:17:53,0.0657501494322,0,0.5
2015-02-27 20:22:53,0.0245068738793,0,0.5
2015-02-27 20:27:53,0.0382546323969,0,0.5
2015-02-27 20:32:53,0.0364614465033,0,0.5
2015-02-27 20:37:53,0.0233114166169,0,0.5
2015-02-27 20:42:53,0.0364614465033,0,0.5
2015-02-27 20:47:53,0.0436341900777,0,0.5
2015-02-27 20:52:53,0.0370591751345,0,0.5
2015-02-27 20:57:53,0.0400478182905,0,0.5
2015-02-27 21:02:53,0.0304841601913,0,0.5
2015-02-27 21:07:53,0.0484160191273,0,0.5
2015-02-27 21:12:53,0.0520023909145,0,0.5
2015-02-27 21:17:53,0.0310818888225,0,0.5
2015-02-27 21:22:53,0.0370591751345,0,0.5
2015-02-27 21:27:53,0.0645546921698,0,0.5
2015-02-27 21:32:53,0.0454273759713,0,0.5
2015-02-27 21:37:53,0.0340705319785,0,0.5
2015-02-27 21:42:53,0.0406455469217,0,0.5
2015-02-27 21:47:53,0.0352659892409,0,0.5
2015-02-27 21:52:53,0.0406455469217,0,0.5
2015-02-27 21:57:53,0.0322773460849,0,0.5
2015-02-27 22:02:53,0.0334728033473,0,0.5
2015-02-27 22:07:53,0.0334728033473,0,0.5
2015-02-27 22:12:53,0.0448296473401,0,0.5
2015-02-27 22:17:53,0.0412432755529,0,0.5
2015-02-27 22:22:53,0.0304841601913,0,0.5
2015-02-27 22:27:53,0.0346682606097,0,0.5
2015-02-27 22:32:53,0.0358637178721,0,0.5
2015-02-27 22:37:53,0.0484160191273,0,0.5
2015-02-27 22:42:53,0.0388523610281,0,0.5
2015-02-27 22:47:53,0.0418410041841,0,0.5
2015-02-27 22:52:53,0.0382546323969,0,0.5
2015-02-27 22:57:53,0.0316796174537,0,0.5
2015-02-27 23:02:53,0.0388523610281,0,0.5
2015-02-27 23:07:53,0.0388523610281,0,0.5
2015-02-27 23:12:53,0.0394500896593,0,0.5
2015-02-27 23:17:53,0.0286909742977,0,0.5
2015-02-27 23:22:53,0.0274955170353,0,0.5
2015-02-27 23:27:53,0.0298864315601,0,0.5
2015-02-27 23:32:53,0.0257023311417,0,0.5
2015-02-27 23:37:53,0.0268977884041,0,0.5
2015-02-27 23:42:53,0.0292887029289,0,0.5
2015-02-27 23:47:53,0.0292887029289,0,0.5
2015-02-27 23:52:53,0.0298864315601,0,0.5
2015-02-27 23:57:53,0.0340705319785,0,0.5
2015-02-28 00:02:53,0.0233114166169,0,0.5
2015-02-28 00:07:53,0.0209205020921,0,0.5
2015-02-28 00:12:53,0.0376569037657,0,0.5
2015-02-28 00:17:53,0.0370591751345,0,0.5
2015-02-28 00:22:53,0.0394500896593,0,0.5
2015-02-28 00:27:53,0.0310818888225,0,0.5
2015-02-28 00:32:53,0.0286909742977,0,0.5
2015-02-28 00:37:53,0.0394500896593,0,0.5
2015-02-28 00:42:53,0.0346682606097,0,0.5
2015-02-28 00:47:53,0.0245068738793,0,0.5
2015-02-28 00:52:53,0.0215182307233,0,0.5
2015-02-28 00:57:53,0.0239091452481,0,0.5
2015-02-28 01:02:53,0.0430364614465,0,0.5
2015-02-28 01:07:53,0.0430364614465,0,0.5
2015-02-28 01:12:53,0.0382546323969,0,0.5
2015-02-28 01:17:53,0.0436341900777,0,0.5
2015-02-28 01:22:53,0.0412432755529,0,0.5
2015-02-28 01:27:53,0.0466228332337,0,0.5
2015-02-28 01:32:53,0.0346682606097,0,0.5
2015-02-28 01:37:53,0.0460251046025,0,0.5
2015-02-28 01:42:53,0.0794979079498,0,0.5
2015-02-28 01:47:53,0.0526001195457,0,0.5
2015-02-28 01:52:53,0.0520023909145,0,0.5
2015-02-28 01:57:53,0.0526001195457,0,0.5
2015-02-28 02:02:53,0.0466228332337,0,0.5
2015-02-28 02:07:53,0.0478182904961,0,0.5
2015-02-28 02:12:53,0.0430364614465,0,0.5
2015-02-28 02:17:53,0.0531978481769,0,0.5
2015-02-28 02:22:53,0.0370591751345,0,0.5
2015-02-28 02:27:53,0.0543933054393,0,0.5
2015-02-28 02:32:53,0.0597728631201,0,0.5
2015-02-28 02:37:53,0.0358637178721,0,0.5
2015-02-28 02:42:53,0.0322773460849,0,0.5
2015-02-28 02:47:53,0.0496114763897,0,0.5
2015-02-28 02:52:53,0.0268977884041,0,0.5
2015-02-28 02:57:53,0.0346682606097,0,0.5
2015-02-28 03:02:53,0.0418410041841,0,0.5
2015-02-28 03:07:53,0.0358637178721,0,0.5
2015-02-28 03:12:53,0.0245068738793,0,0.5
2015-02-28 03:17:53,0.0358637178721,0,0.5
2015-02-28 03:22:53,0.0340705319785,0,0.5
2015-02-28 03:27:53,0.0364614465033,0,0.5
2015-02-28 03:32:53,0.0394500896593,0,0.5
2015-02-28 03:37:53,0.0352659892409,0,0.5
2015-02-28 03:42:53,0.0382546323969,0,0.5
2015-02-28 03:47:53,0.0478182904961,0,0.5
2015-02-28 03:52:53,0.0549910340705,0,0.5
2015-02-28 03:57:53,0.0567842199641,0,0.5
2015-02-28 04:02:53,0.0603705917513,0,0.5
2015-02-28 04:07:53,0.0591751344889,0,0.5
2015-02-28 04:12:53,0.0406455469217,0,0.5
2015-02-28 04:17:53,0.0382546323969,0,0.5
2015-02-28 04:22:53,0.0537955768081,0,0.5
2015-02-28 04:27:53,0.0442319187089,0,0.5
2015-02-28 04:32:53,0.0286909742977,0,0.5
2015-02-28 04:37:53,0.0286909742977,0,0.5
2015-02-28 04:42:53,0.0376569037657,0,0.5
2015-02-28 04:47:53,0.0280932456665,0,0.5
2015-02-28 04:52:53,0.0257023311417,0,0.5
2015-02-28 04:57:53,0.0304841601913,0,0.5
2015-02-28 05:02:53,0.0376569037657,0,0.5
2015-02-28 05:07:53,0.0424387328153,0,0.5
2015-02-28 05:12:53,0.0502092050209,0,0.5
2015-02-28 05:17:53,0.0203227734608,0,0.5
2015-02-28 05:22:53,0.0245068738793,0,0.5
2015-02-28 05:27:53,0.0304841601913,0,0.5
2015-02-28 05:32:53,0.0263000597729,0,0.5
2015-02-28 05:37:53,0.0346682606097,0,0.5
2015-02-28 05:42:53,0.0406455469217,0,0.5
2015-02-28 05:47:53,0.0340705319785,0,0.5
2015-02-28 05:52:53,0.0328750747161,0,0.5
2015-02-28 05:57:53,0.0388523610281,0,0.5
2015-02-28 06:02:53,0.0304841601913,0,0.660506712032
2015-02-28 06:07:53,0.0292887029289,0,0.641354293615
2015-02-28 06:12:53,0.0352659892409,0,0.617897212194
2015-02-28 06:17:53,0.0263000597729,0,0.627076364821
2015-02-28 06:22:53,0.0346682606097,0,0.608651306873
2015-02-28 06:27:53,0.0268977884041,0,0.625769328699
2015-02-28 06:32:53,0.0310818888225,0,0.6464988791
2015-02-28 06:37:53,0.0298864315601,0,0.655437337462
2015-02-28 06:42:53,0.0376569037657,0,0.645215195934
2015-02-28 06:47:53,0.0268977884041,0,0.670558039303
2015-02-28 06:52:53,0.0322773460849,0,0.666802728774
2015-02-28 06:57:53,0.0406455469217,0,0.64264288996
2015-02-28 07:02:53,0.0268977884041,0,0.646063071241
2015-02-28 07:07:53,0.0239091452481,0,0.65118332555
2015-02-28 07:12:53,0.0322773460849,0,0.656276193242
2015-02-28 07:17:53,0.0197250448296,0,0.671382366451
2015-02-28 07:22:53,0.0227136879857,0,0.688657223845
2015-02-28 07:27:53,0.0197250448296,0,0.709085523586
2015-02-28 07:32:53,0.0310818888225,0,0.721960809638
2015-02-28 07:37:53,0.0215182307233,0,0.732284055229
2015-02-28 07:42:53,0.0215182307233,0,0.7523343478
2015-02-28 07:47:53,0.0209205020921,0,0.786907729238
2015-02-28 07:52:53,0.017931858936,0,0.801642580786
2015-02-28 07:57:53,0.01494321578,0,0.815745108893
2015-02-28 08:02:53,0.0143454871488,0,0.84202105066
2015-02-28 08:07:53,0.0161386730424,0,0.846965438054
2015-02-28 08:12:53,0.0125523012552,0,0.860412031489
2015-02-28 08:17:53,0.0268977884041,0,0.851006556409
2015-02-28 08:22:53,0.0161386730424,0,0.870136297152
2015-02-28 08:27:53,0.0185295875672,0,0.873748463281
2015-02-28 08:32:53,0.0209205020921,0,0.874462411452
2015-02-28 08:37:53,0.0346682606097,0,0.857322794812
2015-02-28 08:42:53,0.0358637178721,0,0.832686938011
2015-02-28 08:47:53,0.0221159593545,0,0.8221072252
2015-02-28 08:52:53,0.017931858936,0,0.816662553193
2015-02-28 08:57:53,0.0215182307233,0,0.808303084922
2015-02-28 09:02:53,0.0233114166169,0,0.790898194722
2015-02-28 09:07:53,0.0155409444112,0,0.809243278255
2015-02-28 09:12:53,0.0227136879857,0,0.798745841647
2015-02-28 09:17:53,0.0185295875672,0,0.798745841647
2015-02-28 09:22:53,0.0346682606097,0,0.775707577816
2015-02-28 09:27:53,0.0334728033473,0,0.777768481
2015-02-28 09:32:53,0.0382546323969,0,0.773635867493
2015-02-28 09:37:53,0.0263000597729,0,0.766300400524
2015-02-28 09:42:53,0.0346682606097,0,0.735681703744
2015-02-28 09:47:53,0.0376569037657,0,0.704335479016
2015-02-28 09:52:53,0.0346682606097,0,0.6813016202
2015-02-28 09:57:53,0.0280932456665,0,0.655005588844
2015-02-28 10:02:53,0.0280932456665,0,0.643492934018
2015-02-28 10:07:53,0.0280932456665,0,0.622705701457
2015-02-28 10:12:53,0.0215182307233,0,0.65118332555
2015-02-28 10:17:53,0.0185295875672,0,0.682532630134
2015-02-28 10:22:53,0.017931858936,0,0.723117362673
2015-02-28 10:27:53,0.0125523012552,0,0.749049253741
2015-02-28 10:32:53,0.0137477585176,0,0.785903215316
2015-02-28 10:37:53,0.0257023311417,0,0.805465521122
2015-02-28 10:42:53,0.0257023311417,0,0.819397756237
2015-02-28 10:47:53,0.0316796174537,0,0.813901667592
2015-02-28 10:52:53,0.0322773460849,0,0.807360059122
2015-02-28 10:57:53,0.0268977884041,0,0.809243278255
2015-02-28 11:02:53,0.0221159593545,0,0.808303084922
2015-02-28 11:07:53,0.0209205020921,0,0.804514014613
2015-02-28 11:12:53,0.0257023311417,0,0.791888892406
2015-02-28 11:17:53,0.0257023311417,0,0.769460196821
2015-02-28 11:22:53,0.0257023311417,0,0.747949119972
2015-02-28 11:27:53,0.0239091452481,0,0.751241874763
2015-02-28 11:32:53,0.0167364016736,0,0.767356325292
2015-02-28 11:37:53,0.01494321578,0,0.795823887392
2015-02-28 11:42:53,0.0185295875672,0,0.817577143826
2015-02-28 11:47:53,0.0137477585176,0,0.83697292806
2015-02-28 11:52:53,0.0185295875672,0,0.84202105066
2015-02-28 11:57:53,0.0185295875672,0,0.845328833411
2015-02-28 12:02:53,0.0215182307233,0,0.851006556409
2015-02-28 12:07:53,0.0274955170353,0,0.848590522058
2015-02-28 12:12:53,0.0280932456665,0,0.845328833411
2015-02-28 12:17:53,0.0191273161984,0,0.85180614613
2015-02-28 12:22:53,0.0233114166169,0,0.842852318637
2015-02-28 12:27:53,0.0251046025105,0,0.828328997713
2015-02-28 12:32:53,0.0274955170353,0,0.814824812982
2015-02-28 12:37:53,0.0239091452481,0,0.798745841647
2015-02-28 12:42:53,0.0358637178721,0,0.769460196821
2015-02-28 12:47:53,0.0418410041841,0,0.726572820643
2015-02-28 12:52:53,0.0424387328153,0,0.684988592549
2015-02-28 12:57:53,0.0412432755529,0,0.656276193242
2015-02-28 13:02:53,0.0334728033473,0,0.644778825865
2015-02-28 13:07:53,0.0418410041841,0,0.594882652753
2015-02-28 13:12:53,0.0526001195457,0,0.528310371836
2015-02-28 13:17:53,0.0298864315601,0,0.517314669996
2015-02-28 13:22:53,0.0316796174537,0,0.507682327431
2015-02-28 13:27:53,0.0257023311417,0,0.503552480828
2015-02-28 13:32:53,0.0316796174537,0,0.513187432403
2015-02-28 13:37:53,0.0257023311417,0,0.550228858818
2015-02-28 13:42:53,0.0352659892409,0,0.566571403341
2015-02-28 13:47:53,0.0298864315601,0,0.592205188925
2015-02-28 13:52:53,0.0245068738793,0,0.612172774167
2015-02-28 13:57:53,0.0239091452481,0,0.65118332555
2015-02-28 14:02:53,0.0257023311417,0,0.706714958507
2015-02-28 14:07:53,0.0454273759713,0,0.675116740429
2015-02-28 14:12:53,0.0370591751345,0,0.663862358171
2015-02-28 14:17:53,0.0364614465033,0,0.640916263861
2015-02-28 14:22:53,0.0263000597729,0,0.652459142205
2015-02-28 14:27:53,0.0292887029289,0,0.644778825865
2015-02-28 14:32:53,0.0406455469217,0,0.633148124666
2015-02-28 14:37:53,0.0292887029289,0,0.634446707618
2015-02-28 14:42:53,0.0472205618649,0,0.584147401819
2015-02-28 14:47:53,0.0424387328153,0,0.542023736877
2015-02-28 14:52:53,0.0310818888225,0,0.52968349098
2015-02-28 14:57:53,0.0280932456665,0,0.569284901794
2015-02-28 15:02:53,0.0245068738793,0,0.597555682803
2015-02-28 15:07:53,0.0370591751345,0,0.596219729501
2015-02-28 15:12:53,0.0376569037657,0,0.570640433652
2015-02-28 15:17:53,0.0508069336521,0,0.521440052916
2015-02-28 15:22:53,0.0615660490137,0,0.641135071638
2015-02-28 15:27:53,0.0418410041841,0,0.667843392827
2015-02-28 15:32:53,0.0412432755529,0,0.655221261424
2015-02-28 15:37:53,0.0508069336521,0,0.672840390584
2015-02-28 15:42:53,0.0394500896593,0,0.690082518974
2015-02-28 15:47:53,0.0448296473401,0,0.723313329649
2015-02-28 15:52:53,0.0502092050209,0,0.770685641532
2015-02-28 15:57:53,0.0549910340705,0,0.800843333796
2015-02-28 16:02:53,0.0418410041841,0,0.807520236093
2015-02-28 16:07:53,0.0370591751345,0,0.785067019794
2015-02-28 16:12:53,0.0394500896593,0,0.745928910178
2015-02-28 16:17:53,0.0316796174537,0,0.726767578923
2015-02-28 16:22:53,0.0358637178721,0,0.716341290195
2015-02-28 16:27:53,0.0394500896593,0,0.693725161316
2015-02-28 16:32:53,0.0340705319785,0,0.682741262541
2015-02-28 16:37:53,0.0304841601913,0,0.65267540464
2015-02-28 16:42:53,0.0298864315601,0,0.608425974504
2015-02-28 16:47:53,0.0328750747161,0,0.55864360109
2015-02-28 16:52:53,0.0322773460849,0,0.536776039267
2015-02-28 16:57:53,0.0454273759713,0,0.55591852247
2015-02-28 17:02:53,0.0412432755529,0,0.560005108294
2015-02-28 17:07:53,0.0364614465033,0,0.570870307791
2015-02-28 17:12:53,0.0436341900777,0,0.588408756729
2015-02-28 17:17:53,0.0430364614465,0,0.596446443974
2015-02-28 17:22:53,0.0334728033473,0,0.595109556756
2015-02-28 17:27:53,0.0406455469217,0,0.617673439868
2015-02-28 17:32:53,0.0346682606097,0,0.628160095723
2015-02-28 17:37:53,0.0573819485953,0,0.680277918926
2015-02-28 17:42:53,0.0382546323969,0,0.692513049422
2015-02-28 17:47:53,0.0400478182905,0,0.681510593701
2015-02-28 17:52:53,0.0322773460849,0,0.662816371184
2015-02-28 17:57:53,0.0454273759713,0,0.681510593701
2015-02-28 18:02:53,0.0346682606097,0,0.662816371184
2015-02-28 18:07:53,0.0298864315601,0,0.634666850615
2015-02-28 18:12:53,0.0316796174537,0,0.630767312456
2015-02-28 18:17:53,0.0352659892409,0,0.61898918093
2015-02-28 18:22:53,0.0382546323969,0,0.626854271381
2015-02-28 18:27:53,0.0352659892409,0,0.577634428363
2015-02-28 18:32:53,0.0227136879857,0,0.542255989894
2015-02-28 18:37:53,0.0245068738793,0,0.506539308445
2015-02-28 18:42:53,0.0334728033473,0,0.509292277265
2015-02-28 18:47:53,0.0358637178721,0,0.512732850553
2015-02-28 18:52:53,0.0388523610281,0,0.503097674755
2015-02-28 18:57:53,0.0400478182905,0,0.52029841686
2015-02-28 19:02:53,0.0310818888225,0,0.518923323128
2015-02-28 19:07:53,0.0406455469217,0,0.531289101081
2015-02-28 19:12:53,0.0430364614465,0,0.542255989894
2015-02-28 19:17:53,0.0286909742977,0,0.52716993606
2015-02-28 19:22:53,0.0316796174537,0,0.547727919087
2015-02-28 19:27:53,0.0280932456665,0,0.55591852247
2015-02-28 19:32:53,0.0257023311417,0,0.538146722466
2015-02-28 19:37:53,0.0418410041841,0,0.551825982535
2015-02-28 19:42:53,0.0298864315601,0,0.531289101081
2015-02-28 19:47:53,0.0370591751345,0,0.524422183539
2015-02-28 19:52:53,0.0418410041841,0,0.549094527306
2015-02-28 19:57:53,0.0370591751345,0,0.540886713934
2015-02-28 20:02:53,0.0418410041841,0,0.538146722466
2015-02-28 20:07:53,0.0280932456665,0,0.536776039267
2015-02-28 20:12:53,0.0316796174537,0,0.536776039267
2015-02-28 20:17:53,0.0251046025105,0,0.529916396274
2015-02-28 20:22:53,0.0274955170353,0,0.534033378839
2015-02-28 20:27:53,0.0233114166169,0,0.508604071432
2015-02-28 20:32:53,0.0215182307233,0,0.527856677355
2015-02-28 20:37:53,0.0173341303048,0,0.572901824719
2015-02-28 20:42:53,0.0334728033473,0,0.591762510961
2015-02-28 20:47:53,0.0310818888225,0,0.60510809909
2015-02-28 20:52:53,0.0215182307233,0,0.649483382589
2015-02-28 20:57:53,0.0227136879857,0,0.660923656876
2015-02-28 21:02:53,0.0251046025105,0,0.674706367127
2015-02-28 21:07:53,0.0257023311417,0,0.673462865867
2015-02-28 21:12:53,0.0298864315601,0,0.668469675365
2015-02-28 21:17:53,0.0245068738793,0,0.665961736418
2015-02-28 21:22:53,0.0245068738793,0,0.659659583483
2015-02-28 21:27:53,0.0268977884041,0,0.639198752351
2015-02-28 21:32:53,0.0173341303048,0,0.673462865867
2015-02-28 21:37:53,0.0227136879857,0,0.690690936532
2015-02-28 21:42:53,0.0221159593545,0,0.689473580388
2015-02-28 21:47:53,0.0221159593545,0,0.690690936532
2015-02-28 21:52:53,0.0173341303048,0,0.706322531974
2015-02-28 21:57:53,0.0221159593545,0,0.713411641336
2015-02-28 22:02:53,0.0245068738793,0,0.723890520861
2015-02-28 22:07:53,0.0316796174537,0,0.709877233736
2015-02-28 22:12:53,0.0687387925882,0,0.617015058421
2015-02-28 22:17:53,0.0310818888225,0,0.607763021626
2015-02-28 22:22:53,0.0400478182905,0,0.556600045189
2015-02-28 22:27:53,0.0334728033473,0,0.531975315048
2015-02-28 22:32:53,0.0292887029289,0,0.515484639313
2015-02-28 22:37:53,0.0322773460849,0,0.507915839986
2015-02-28 22:42:53,0.0304841601913,0,0.538146722466
2015-02-28 22:47:53,0.0257023311417,0,0.546360745172
2015-02-28 22:52:53,0.0454273759713,0,0.593771558537
2015-02-28 22:57:53,0.0543933054393,0,0.643711191782
2015-02-28 23:02:53,0.0274955170353,0,0.551825982535
2015-02-28 23:07:53,0.0251046025105,0,0.538146722466
2015-02-28 23:12:53,0.0286909742977,0,0.512044803503
2015-02-28 23:17:53,0.0292887029289,0,0.502409312152
2015-02-28 23:22:53,0.0292887029289,0,0.502409312152
2015-02-28 23:27:53,0.0233114166169,0,0.518235690792
2015-02-28 23:32:53,0.0412432755529,0,0.506539308445
2015-02-28 23:37:53,0.0436341900777,0,0.547727919087
2015-02-28 23:42:53,0.0304841601913,0,0.501178185568
2015-02-28 23:47:53,0.0173341303048,0,0.583560274408
2015-02-28 23:52:53,0.0245068738793,0,0.590279933056
2015-02-28 23:57:53,0.0322773460849,0,0.574112005701
2015-03-01 00:02:53,0.017931858936,0,0.598308490657
2015-03-01 00:07:53,0.0185295875672,0,0.622133757632
2015-03-01 00:12:53,0.0263000597729,0,0.628674487894
2015-03-01 00:17:53,0.0257023311417,0,0.623444776347
2015-03-01 00:22:53,0.0167364016736,0,0.675816699613
2015-03-01 00:27:53,0.0251046025105,0,0.71328737887
2015-03-01 00:32:53,0.0197250448296,0,0.73405796248
2015-03-01 00:37:53,0.0358637178721,0,0.697823500847
2015-03-01 00:42:53,0.0274955170353,0,0.691777764444
2015-03-01 00:47:53,0.0245068738793,0,0.707384213868
2015-03-01 00:52:53,0.0251046025105,0,0.692991153274
2015-03-01 00:57:53,0.0233114166169,0,0.683225876288
2015-03-01 01:02:53,0.0268977884041,0,0.681996001378
2015-03-01 01:07:53,0.0245068738793,0,0.68445372943
2015-03-01 01:12:53,0.0376569037657,0,0.640353529769
2015-03-01 01:17:53,0.0263000597729,0,0.637769045971
2015-03-01 01:22:53,0.0268977884041,0,0.622133757632
2015-03-01 01:27:53,0.0197250448296,0,0.656991877075
2015-03-01 01:32:53,0.0239091452481,0,0.664571938326
2015-03-01 01:37:53,0.0268977884041,0,0.659525778137
2015-03-01 01:42:53,0.0400478182905,0,0.627369242478
2015-03-01 01:47:53,0.0268977884041,0,0.619507509635
2015-03-01 01:52:53,0.0370591751345,0,0.596973177433
2015-03-01 01:57:53,0.0424387328153,0,0.556455890814
2015-03-01 02:02:53,0.0280932456665,0,0.578166807971
2015-03-01 02:07:53,0.0484160191273,0,0.527711411995
2015-03-01 02:12:53,0.0430364614465,0,0.509437855793
2015-03-01 02:17:53,0.0466228332337,0,0.57101361797
2015-03-01 02:22:53,0.0376569037657,0,0.601923430339
2015-03-01 02:27:53,0.0406455469217,0,0.632206233231
2015-03-01 02:32:53,0.0298864315601,0,0.609890999908
2015-03-01 02:37:53,0.0209205020921,0,0.596587779922
2015-03-01 02:42:53,0.0430364614465,0,0.609890999908
2015-03-01 02:47:53,0.0263000597729,0,0.573721700427
2015-03-01 02:52:53,0.0257023311417,0,0.568302188552
2015-03-01 02:57:53,0.0245068738793,0,0.513566395052
2015-03-01 03:02:53,0.0310818888225,0,0.513963300397
2015-03-01 03:07:53,0.0280932456665,0,0.556455890814
2015-03-01 03:12:53,0.0292887029289,0,0.575464499573
2015-03-01 03:17:53,0.0173341303048,0,0.627369242478
2015-03-01 03:22:53,0.0227136879857,0,0.642931610412
2015-03-01 03:27:53,0.0286909742977,0,0.626062532782