timestamp,value,is_anomaly,anomaly_score
2013-07-04 00:00:00,0.4318620855465069,0,0.4318620855465069
2013-07-04 01:00:00,0.4784256491076573,0,0.4784256491076573
2013-07-04 02:00:00,0.4665214461779485,0,0.4665214461779485
2013-07-04 03:00:00,0.3998286636167391,0,0.3998286636167391
2013-07-04 04:00:00,0.4110976799454295,0,0.4110976799454295
2013-07-04 05:00:00,0.4381242749599367,0,0.4381242749599367
2013-07-04 06:00:00,0.4109660527804229,0,0.4109660527804229
2013-07-04 07:00:00,0.4140894413690384,0,0.4140894413690384
2013-07-04 08:00:00,0.4070358734497776,0,0.4070358734497776
2013-07-04 09:00:00,0.4007562773490838,0,0.4007562773490838
2013-07-04 10:00:00,0.4347902157419026,0,0.4347902157419026
2013-07-04 11:00:00,0.4553407593137401,0,0.4553407593137401
2013-07-04 12:00:00,0.4466951407345125,0,0.4466951407345125
2013-07-04 13:00:00,0.4445656997145397,0,0.4445656997145397
2013-07-04 14:00:00,0.4309607497585779,0,0.4309607497585779
2013-07-04 15:00:00,0.4931333479879541,0,0.4931333479879541
2013-07-04 16:00:00,0.4793097975736044,0,0.4793097975736044
2013-07-04 17:00:00,0.4619079891883802,0,0.4619079891883802
2013-07-04 18:00:00,0.4837471251006499,0,0.4837471251006499
2013-07-04 19:00:00,0.4984335650168391,0,0.4984335650168391
2013-07-04 20:00:00,0.5087188834545492,0,0.5087188834545492
2013-07-04 21:00:00,0.4899970481359412,0,0.4899970481359412
2013-07-04 22:00:00,0.5120594012592825,0,0.5120594012592825
2013-07-04 23:00:00,0.4586003946012218,0,0.4586003946012218
2013-07-05 00:00:00,0.4826848485493508,0,0.4826848485493508
2013-07-05 01:00:00,0.4911669492577044,0,0.4911669492577044
2013-07-05 02:00:00,0.469969972703123,0,0.469969972703123
2013-07-05 03:00:00,0.44448330528031466,0,0.44448330528031466
2013-07-05 04:00:00,0.451051893759585,0,0.451051893759585
2013-07-05 05:00:00,0.4272775844264989,0,0.4272775844264989
2013-07-05 06:00:00,0.39252745975835857,0,0.39252745975835857
2013-07-05 07:00:00,0.4134643076774584,0,0.4134643076774584
2013-07-05 08:00:00,0.3961348616758423,0,0.3961348616758423
2013-07-05 09:00:00,0.44705684662020745,0,0.44705684662020745
2013-07-05 10:00:00,0.4464535889662299,0,0.4464535889662299
2013-07-05 11:00:00,0.5239790842163624,0,0.5239790842163624
2013-07-05 12:00:00,0.4931304187139997,0,0.4931304187139997
2013-07-05 13:00:00,0.5375955569334461,0,0.5375955569334461
2013-07-05 14:00:00,0.5276997940381106,0,0.5276997940381106
2013-07-05 15:00:00,0.5388746484279385,0,0.5388746484279385
2013-07-05 16:00:00,0.5108261359022321,0,0.5108261359022321
2013-07-05 17:00:00,0.5113077942700552,0,0.5113077942700552
2013-07-05 18:00:00,0.5161578222887725,0,0.5161578222887725
2013-07-05 19:00:00,0.5188248473081534,0,0.5188248473081534
2013-07-05 20:00:00,0.5268223454259073,0,0.5268223454259073
2013-07-05 21:00:00,0.5325114852795568,0,0.5325114852795568
2013-07-05 22:00:00,0.5026476722039902,0,0.5026476722039902
2013-07-05 23:00:00,0.4900183376929882,0,0.4900183376929882
2013-07-06 00:00:00,0.4927047982677549,0,0.4927047982677549
2013-07-06 01:00:00,0.4567501395321374,0,0.4567501395321374
2013-07-06 02:00:00,0.4656411173100232,0,0.4656411173100232
2013-07-06 03:00:00,0.4737164633340203,0,0.4737164633340203
2013-07-06 04:00:00,0.4654586043525629,0,0.4654586043525629
2013-07-06 05:00:00,0.4440849195031377,0,0.4440849195031377
2013-07-06 06:00:00,0.44046297550999536,0,0.44046297550999536
2013-07-06 07:00:00,0.4335445658067204,0,0.4335445658067204
2013-07-06 08:00:00,0.4111741205764573,0,0.4111741205764573
2013-07-06 09:00:00,0.4264927458567736,0,0.4264927458567736
2013-07-06 10:00:00,0.37308426691471697,0,0.37308426691471697
2013-07-06 11:00:00,0.39834752974470006,0,0.39834752974470006
2013-07-06 12:00:00,0.3410347576182002,0,0.3410347576182002
2013-07-06 13:00:00,0.3304925530489444,0,0.3304925530489444
2013-07-06 14:00:00,0.3583190456599837,0,0.3583190456599837
2013-07-06 15:00:00,0.3288803628483373,0,0.3288803628483373
2013-07-06 16:00:00,0.35275109695486473,0,0.35275109695486473
2013-07-06 17:00:00,0.33785053288356803,0,0.33785053288356803
2013-07-06 18:00:00,0.3662160793456976,0,0.3662160793456976
2013-07-06 19:00:00,0.34068626266765073,0,0.34068626266765073
2013-07-06 20:00:00,0.3175989807144552,0,0.3175989807144552
2013-07-06 21:00:00,0.3619058515762639,0,0.3619058515762639
2013-07-06 22:00:00,0.3418689756257573,0,0.3418689756257573
2013-07-06 23:00:00,0.3373904425380707,0,0.3373904425380707
2013-07-07 00:00:00,0.3065300901851833,0,0.3065300901851833
2013-07-07 01:00:00,0.29585393894987433,0,0.29585393894987433
2013-07-07 02:00:00,0.27318164778704657,0,0.27318164778704657
2013-07-07 03:00:00,0.2770997877530694,0,0.2770997877530694
2013-07-07 04:00:00,0.32305373484824457,0,0.32305373484824457
2013-07-07 05:00:00,0.25119277021313385,0,0.25119277021313385
2013-07-07 06:00:00,0.2470658442122931,0,0.2470658442122931
2013-07-07 07:00:00,0.3014534832085238,0,0.3014534832085238
2013-07-07 08:00:00,0.3002879506194582,0,0.3002879506194582
2013-07-07 09:00:00,0.2613056539810569,0,0.2613056539810569
2013-07-07 10:00:00,0.2390554553423179,0,0.2390554553423179
2013-07-07 11:00:00,0.2810037823087055,0,0.2810037823087055
2013-07-07 12:00:00,0.2243953455176005,0,0.2243953455176005
2013-07-07 13:00:00,0.2625026729624829,0,0.2625026729624829
2013-07-07 14:00:00,0.2290790292950139,0,0.2290790292950139
2013-07-07 15:00:00,0.2363969598430493,0,0.2363969598430493
2013-07-07 16:00:00,0.22370802402831486,0,0.22370802402831486
2013-07-07 17:00:00,0.2323915837624833,0,0.2323915837624833
2013-07-07 18:00:00,0.2335331676422979,0,0.2335331676422979
2013-07-07 19:00:00,0.19811279477862467,0,0.19811279477862467
2013-07-07 20:00:00,0.20610231578741187,0,0.20610231578741187
2013-07-07 21:00:00,0.22708240891233344,0,0.22708240891233344
2013-07-07 22:00:00,0.18134600890501654,0,0.18134600890501654
2013-07-07 23:00:00,0.23599073601572176,0,0.23599073601572176
2013-07-08 00:00:00,0.1746015360543864,0,0.1746015360543864
2013-07-08 01:00:00,0.1589494018444487,0,0.1589494018444487
2013-07-08 02:00:00,0.2069596658813254,0,0.2069596658813254
2013-07-08 03:00:00,0.14763541841415068,0,0.14763541841415068
2013-07-08 04:00:00,0.18483467892912706,0,0.18483467892912706
2013-07-08 05:00:00,0.13579338520450115,0,0.13579338520450115
2013-07-08 06:00:00,0.1471045895443661,0,0.1471045895443661
2013-07-08 07:00:00,0.16485711677825113,0,0.16485711677825113
2013-07-08 08:00:00,0.19205418712383207,0,0.19205418712383207
2013-07-08 09:00:00,0.2429957331241641,0,0.2429957331241641
2013-07-08 10:00:00,0.27375611018439594,0,0.27375611018439594
2013-07-08 11:00:00,0.31477833985482423,0,0.31477833985482423
2013-07-08 12:00:00,0.3624963196433084,0,0.3624963196433084
2013-07-08 13:00:00,0.3394460989503973,0,0.3394460989503973
2013-07-08 14:00:00,0.3695642968370593,0,0.3695642968370593
2013-07-08 15:00:00,0.3856855066778751,0,0.3856855066778751
2013-07-08 16:00:00,0.4471411305160912,0,0.4471411305160912
2013-07-08 17:00:00,0.4528843955373074,0,0.4528843955373074
2013-07-08 18:00:00,0.5172951773899994,0,0.5172951773899994
2013-07-08 19:00:00,0.4774034882435307,0,0.4774034882435307
2013-07-08 20:00:00,0.4624224351914329,0,0.4624224351914329
2013-07-08 21:00:00,0.4558469407037239,0,0.4558469407037239
2013-07-08 22:00:00,0.3972673100867545,0,0.3972673100867545
2013-07-08 23:00:00,0.3792816006870608,0,0.3792816006870608
2013-07-09 00:00:00,0.3811456667300804,0,0.3811456667300804
2013-07-09 01:00:00,0.3511178761942553,0,0.3511178761942553
2013-07-09 02:00:00,0.3139262016853261,0,0.3139262016853261
2013-07-09 03:00:00,0.2972726684401029,0,0.2972726684401029
2013-07-09 04:00:00,0.2580994586488277,0,0.2580994586488277
2013-07-09 05:00:00,0.2897878687037339,0,0.2897878687037339
2013-07-09 06:00:00,0.28638368212490795,0,0.28638368212490795
2013-07-09 07:00:00,0.3020820440046184,0,0.3020820440046184
2013-07-09 08:00:00,0.34834977592698624,0,0.34834977592698624
2013-07-09 09:00:00,0.3469954981119841,0,0.3469954981119841
2013-07-09 10:00:00,0.38388522899953054,0,0.38388522899953054
2013-07-09 11:00:00,0.4336991567969156,0,0.4336991567969156
2013-07-09 12:00:00,0.4592473789521709,0,0.4592473789521709
2013-07-09 13:00:00,0.4163154823765611,0,0.4163154823765611
2013-07-09 14:00:00,0.4431823099364567,0,0.4431823099364567
2013-07-09 15:00:00,0.4440017056648415,0,0.4440017056648415
2013-07-09 16:00:00,0.491058629740809,0,0.491058629740809
2013-07-09 17:00:00,0.4903895993528552,0,0.4903895993528552
2013-07-09 18:00:00,0.4717837644648313,0,0.4717837644648313
2013-07-09 19:00:00,0.5344259879550551,0,0.5344259879550551
2013-07-09 20:00:00,0.4755381293011714,0,0.4755381293011714
2013-07-09 21:00:00,0.4262996161063761,0,0.4262996161063761
2013-07-09 22:00:00,0.4073450196225236,0,0.4073450196225236
2013-07-09 23:00:00,0.4123506624519672,0,0.4123506624519672
2013-07-10 00:00:00,0.3947253649956868,0,0.3947253649956868
2013-07-10 01:00:00,0.3858451993883742,0,0.3858451993883742
2013-07-10 02:00:00,0.3571108011556548,0,0.3571108011556548
2013-07-10 03:00:00,0.3598059167511146,0,0.3598059167511146
2013-07-10 04:00:00,0.3293736896413915,0,0.3293736896413915
2013-07-10 05:00:00,0.2914067865698477,0,0.2914067865698477
2013-07-10 06:00:00,0.3023232481258619,0,0.3023232481258619
2013-07-10 07:00:00,0.2893413265110096,0,0.2893413265110096
2013-07-10 08:00:00,0.34331820731957763,0,0.34331820731957763
2013-07-10 09:00:00,0.3438291347869435,0,0.3438291347869435
2013-07-10 10:00:00,0.4274186196156865,0,0.4274186196156865
2013-07-10 11:00:00,0.4326809340784513,0,0.4326809340784513
2013-07-10 12:00:00,0.4566635622087338,0,0.4566635622087338
2013-07-10 13:00:00,0.4380721998669608,0,0.4380721998669608
2013-07-10 14:00:00,0.4716822824699068,0,0.4716822824699068
2013-07-10 15:00:00,0.4902782862473034,0,0.4902782862473034
2013-07-10 16:00:00,0.4701798927625829,0,0.4701798927625829
2013-07-10 17:00:00,0.4979067479938894,0,0.4979067479938894
2013-07-10 18:00:00,0.5543508183076982,0,0.5543508183076982
2013-07-10 19:00:00,0.4917646184855231,0,0.4917646184855231
2013-07-10 20:00:00,0.4527077668536362,0,0.4527077668536362
2013-07-10 21:00:00,0.4181983613391197,0,0.4181983613391197
2013-07-10 22:00:00,0.4142664754091576,0,0.4142664754091576
2013-07-10 23:00:00,0.3896824763053807,0,0.3896824763053807
2013-07-11 00:00:00,0.4032009212485237,0,0.4032009212485237
2013-07-11 01:00:00,0.4110154575964892,0,0.4110154575964892
2013-07-11 02:00:00,0.366795646939821,0,0.366795646939821
2013-07-11 03:00:00,0.38660509393537396,0,0.38660509393537396
2013-07-11 04:00:00,0.3141718880198485,0,0.3141718880198485
2013-07-11 05:00:00,0.3230210967012423,0,0.3230210967012423
2013-07-11 06:00:00,0.3116531820904253,0,0.3116531820904253
2013-07-11 07:00:00,0.3500593236380418,0,0.3500593236380418
2013-07-11 08:00:00,0.3627718897173398,0,0.3627718897173398
2013-07-11 09:00:00,0.4047565868216975,0,0.4047565868216975
2013-07-11 10:00:00,0.4539348875492645,0,0.4539348875492645
2013-07-11 11:00:00,0.4886245904666597,0,0.4886245904666597
2013-07-11 12:00:00,0.4634389752982255,0,0.4634389752982255
2013-07-11 13:00:00,0.4681305231993172,0,0.4681305231993172
2013-07-11 14:00:00,0.4859505405435534,0,0.4859505405435534
2013-07-11 15:00:00,0.5323199922514201,0,0.5323199922514201
2013-07-11 16:00:00,0.51191706204605,0,0.51191706204605
2013-07-11 17:00:00,0.5135896096827003,0,0.5135896096827003
2013-07-11 18:00:00,0.5105789741536739,0,0.5105789741536739
2013-07-11 19:00:00,0.5286764350418366,0,0.5286764350418366
2013-07-11 20:00:00,0.49672596378155703,0,0.49672596378155703
2013-07-11 21:00:00,0.4872910411063831,0,0.4872910411063831
2013-07-11 22:00:00,0.44226179341842137,0,0.44226179341842137
2013-07-11 23:00:00,0.43664046385804656,0,0.43664046385804656
2013-07-12 00:00:00,0.4232840954411519,0,0.4232840954411519
2013-07-12 01:00:00,0.4096416913837513,0,0.4096416913837513
2013-07-12 02:00:00,0.4167961221385588,0,0.4167961221385588
2013-07-12 03:00:00,0.42075543950581296,0,0.42075543950581296
2013-07-12 04:00:00,0.3467111263102086,0,0.3467111263102086
2013-07-12 05:00:00,0.34130176549329744,0,0.34130176549329744
2013-07-12 06:00:00,0.3540652138885789,0,0.3540652138885789
2013-07-12 07:00:00,0.3357549596381751,0,0.3357549596381751
2013-07-12 08:00:00,0.3868528908350727,0,0.3868528908350727
2013-07-12 09:00:00,0.385553699431702,0,0.385553699431702
2013-07-12 10:00:00,0.4284822332174992,0,0.4284822332174992
2013-07-12 11:00:00,0.440755923764233,0,0.440755923764233
2013-07-12 12:00:00,0.4985314589466686,0,0.4985314589466686
2013-07-12 13:00:00,0.5386742726702984,0,0.5386742726702984
2013-07-12 14:00:00,0.5536340681488781,0,0.5536340681488781
2013-07-12 15:00:00,0.5307584003391657,0,0.5307584003391657
2013-07-12 16:00:00,0.5847042119318205,0,0.5847042119318205
2013-07-12 17:00:00,0.5607914048852882,0,0.5607914048852882
2013-07-12 18:00:00,0.5430017169640654,0,0.5430017169640654
2013-07-12 19:00:00,0.5932900891055585,0,0.5932900891055585
2013-07-12 20:00:00,0.5238039048731986,0,0.5238039048731986
2013-07-12 21:00:00,0.5278755438700661,0,0.5278755438700661
2013-07-12 22:00:00,0.5568911962059114,0,0.5568911962059114
2013-07-12 23:00:00,0.5185783217536775,0,0.5185783217536775
2013-07-13 00:00:00,0.4780064556122303,0,0.4780064556122303
2013-07-13 01:00:00,0.5137339662917021,0,0.5137339662917021
2013-07-13 02:00:00,0.4742433279846152,0,0.4742433279846152
2013-07-13 03:00:00,0.4693742221393148,0,0.4693742221393148
2013-07-13 04:00:00,0.44482465365067503,0,0.44482465365067503
2013-07-13 05:00:00,0.4810051372978064,0,0.4810051372978064
2013-07-13 06:00:00,0.4490833486565138,0,0.4490833486565138
2013-07-13 07:00:00,0.4476629174340275,0,0.4476629174340275
2013-07-13 08:00:00,0.3998938557801595,0,0.3998938557801595
2013-07-13 09:00:00,0.38993426627897454,0,0.38993426627897454
2013-07-13 10:00:00,0.3901649648543339,0,0.3901649648543339
2013-07-13 11:00:00,0.4394544458862844,0,0.4394544458862844
2013-07-13 12:00:00,0.4113622024918421,0,0.4113622024918421
2013-07-13 13:00:00,0.4064354140068204,0,0.4064354140068204
2013-07-13 14:00:00,0.4144665806974008,0,0.4144665806974008
2013-07-13 15:00:00,0.3778537006155797,0,0.3778537006155797
2013-07-13 16:00:00,0.3912164090715319,0,0.3912164090715319
2013-07-13 17:00:00,0.4161998469753685,0,0.4161998469753685
2013-07-13 18:00:00,0.4056095280558569,0,0.4056095280558569
2013-07-13 19:00:00,0.4153231211213599,0,0.4153231211213599
2013-07-13 20:00:00,0.3890295374559407,0,0.3890295374559407
2013-07-13 21:00:00,0.3553878714671105,0,0.3553878714671105
2013-07-13 22:00:00,0.4069287286322285,0,0.4069287286322285
2013-07-13 23:00:00,0.3734221398576239,0,0.3734221398576239
2013-07-14 00:00:00,0.3711592642556865,0,0.3711592642556865
2013-07-14 01:00:00,0.3416494813668315,0,0.3416494813668315
2013-07-14 02:00:00,0.35873590227201163,0,0.35873590227201163
2013-07-14 03:00:00,0.38052037868321503,0,0.38052037868321503
2013-07-14 04:00:00,0.3707983450952419,0,0.3707983450952419
2013-07-14 05:00:00,0.3188392963534649,0,0.3188392963534649
2013-07-14 06:00:00,0.35792402788732475,0,0.35792402788732475
2013-07-14 07:00:00,0.3385616761909359,0,0.3385616761909359
2013-07-14 08:00:00,0.3037291261479843,0,0.3037291261479843
2013-07-14 09:00:00,0.33291605757485776,0,0.33291605757485776
2013-07-14 10:00:00,0.3105838844595176,0,0.3105838844595176
2013-07-14 11:00:00,0.3313318140244558,0,0.3313318140244558
2013-07-14 12:00:00,0.3215079671339301,0,0.3215079671339301
2013-07-14 13:00:00,0.2933072554296596,0,0.2933072554296596
2013-07-14 14:00:00,0.30226869604773,0,0.30226869604773
2013-07-14 15:00:00,0.29514751390812555,0,0.29514751390812555
2013-07-14 16:00:00,0.3033931377996781,0,0.3033931377996781
2013-07-14 17:00:00,0.2954408282346961,0,0.2954408282346961
2013-07-14 18:00:00,0.3171442702068927,0,0.3171442702068927
2013-07-14 19:00:00,0.3383591676187092,0,0.3383591676187092
2013-07-14 20:00:00,0.3228309330753857,0,0.3228309330753857
2013-07-14 21:00:00,0.2934242553454824,0,0.2934242553454824
2013-07-14 22:00:00,0.280191091996417,0,0.280191091996417
2013-07-14 23:00:00,0.296414453052708,0,0.296414453052708
2013-07-15 00:00:00,0.31881589171182984,0,0.31881589171182984
2013-07-15 01:00:00,0.25897629053518345,0,0.25897629053518345
2013-07-15 02:00:00,0.26043692922366085,0,0.26043692922366085
2013-07-15 03:00:00,0.2844392143604936,0,0.2844392143604936
2013-07-15 04:00:00,0.2390009495012424,0,0.2390009495012424
2013-07-15 05:00:00,0.2904799251456964,0,0.2904799251456964
2013-07-15 06:00:00,0.23430414413397302,0,0.23430414413397302
2013-07-15 07:00:00,0.2897419292333568,0,0.2897419292333568
2013-07-15 08:00:00,0.3132933651782935,0,0.3132933651782935
2013-07-15 09:00:00,0.3042864599757011,0,0.3042864599757011
2013-07-15 10:00:00,0.38050166310484784,0,0.38050166310484784
2013-07-15 11:00:00,0.4192162471876022,0,0.4192162471876022
2013-07-15 12:00:00,0.4150579425649837,0,0.4150579425649837
2013-07-15 13:00:00,0.4677410437916437,0,0.4677410437916437
2013-07-15 14:00:00,0.46690303156429797,0,0.46690303156429797
2013-07-15 15:00:00,0.4745839362144274,0,0.4745839362144274
2013-07-15 16:00:00,0.5391711990007988,0,0.5391711990007988
2013-07-15 17:00:00,0.5064975408967649,0,0.5064975408967649
2013-07-15 18:00:00,0.5733958941053241,0,0.5733958941053241
2013-07-15 19:00:00,0.5533701171341981,0,0.5533701171341981
2013-07-15 20:00:00,0.5579488772109968,0,0.5579488772109968
2013-07-15 21:00:00,0.5305351817375064,0,0.5305351817375064
2013-07-15 22:00:00,0.5220195744598463,0,0.5220195744598463
2013-07-15 23:00:00,0.5084738305329332,0,0.5084738305329332
2013-07-16 00:00:00,0.4485512950262096,0,0.4485512950262096
2013-07-16 01:00:00,0.4725262019157465,0,0.4725262019157465
2013-07-16 02:00:00,0.4732664498856075,0,0.4732664498856075
2013-07-16 03:00:00,0.4538643513555546,0,0.4538643513555546
2013-07-16 04:00:00,0.44235251434688705,0,0.44235251434688705
2013-07-16 05:00:00,0.4309790151340291,0,0.4309790151340291
2013-07-16 06:00:00,0.3661304048616557,0,0.3661304048616557
2013-07-16 07:00:00,0.3823858363573333,0,0.3823858363573333
2013-07-16 08:00:00,0.3758977900488623,0,0.3758977900488623
2013-07-16 09:00:00,0.39989757803701054,0,0.39989757803701054
2013-07-16 10:00:00,0.4271178489554141,0,0.4271178489554141
2013-07-16 11:00:00,0.4574099725700157,0,0.4574099725700157
2013-07-16 12:00:00,0.4769737224539878,0,0.4769737224539878
2013-07-16 13:00:00,0.5189793694642351,0,0.5189793694642351
2013-07-16 14:00:00,0.5198551146059455,0,0.5198551146059455
2013-07-16 15:00:00,0.5642217327832431,0,0.5642217327832431
2013-07-16 16:00:00,0.5661382198280431,0,0.5661382198280431
2013-07-16 17:00:00,0.566585154514275,0,0.566585154514275
2013-07-16 18:00:00,0.5863279328894313,0,0.5863279328894313
2013-07-16 19:00:00,0.5703351428220357,0,0.5703351428220357
2013-07-16 20:00:00,0.5677106572849867,0,0.5677106572849867
2013-07-16 21:00:00,0.5403910024215416,0,0.5403910024215416
2013-07-16 22:00:00,0.5071130798777037,0,0.5071130798777037
2013-07-16 23:00:00,0.4738092451141358,0,0.4738092451141358
2013-07-17 00:00:00,0.5050115476144084,0,0.5050115476144084
2013-07-17 01:00:00,0.4746492650031335,0,0.4746492650031335
2013-07-17 02:00:00,0.4706543659613951,0,0.4706543659613951
2013-07-17 03:00:00,0.41030830214831016,0,0.41030830214831016
2013-07-17 04:00:00,0.41948828377712505,0,0.41948828377712505
2013-07-17 05:00:00,0.38921093724758093,0,0.38921093724758093
2013-07-17 06:00:00,0.3818491207802305,0,0.3818491207802305
2013-07-17 07:00:00,0.4007852902327589,0,0.4007852902327589
2013-07-17 08:00:00,0.3706876372431857,0,0.3706876372431857
2013-07-17 09:00:00,0.4456367557441725,0,0.4456367557441725
2013-07-17 10:00:00,0.4174602847726666,0,0.4174602847726666
2013-07-17 11:00:00,0.4472224176944956,0,0.4472224176944956
2013-07-17 12:00:00,0.4988538216169127,0,0.4988538216169127
2013-07-17 13:00:00,0.507771860240347,0,0.507771860240347
2013-07-17 14:00:00,0.5224280388723428,0,0.5224280388723428
2013-07-17 15:00:00,0.5179879350360405,0,0.5179879350360405
2013-07-17 16:00:00,0.6004509297764792,0,0.6004509297764792
2013-07-17 17:00:00,0.5909140196275856,0,0.5909140196275856
2013-07-17 18:00:00,0.624458384424788,0,0.624458384424788
2013-07-17 19:00:00,0.6074021455402762,0,0.6074021455402762
2013-07-17 20:00:00,0.5563496253902566,0,0.5563496253902566
2013-07-17 21:00:00,0.5556871982101689,0,0.5556871982101689
2013-07-17 22:00:00,0.5609581534400992,0,0.5609581534400992
2013-07-17 23:00:00,0.5251260788746986,0,0.5251260788746986
2013-07-18 00:00:00,0.4943491965759762,0,0.4943491965759762
2013-07-18 01:00:00,0.5269547461055761,0,0.5269547461055761
2013-07-18 02:00:00,0.4520505025797321,0,0.4520505025797321
2013-07-18 03:00:00,0.4598847692877726,0,0.4598847692877726
2013-07-18 04:00:00,0.4804422543280457,0,0.4804422543280457
2013-07-18 05:00:00,0.44684418397325293,0,0.44684418397325293
2013-07-18 06:00:00,0.4199404985265913,0,0.4199404985265913
2013-07-18 07:00:00,0.44985087718485217,0,0.44985087718485217
2013-07-18 08:00:00,0.42325948029252575,0,0.42325948029252575
2013-07-18 09:00:00,0.41765412789478856,0,0.41765412789478856
2013-07-18 10:00:00,0.4868998384123352,0,0.4868998384123352
2013-07-18 11:00:00,0.5198970074647838,0,0.5198970074647838
2013-07-18 12:00:00,0.4698575693764553,0,0.4698575693764553
2013-07-18 13:00:00,0.5197363625490438,0,0.5197363625490438
2013-07-18 14:00:00,0.5715382824772378,0,0.5715382824772378
2013-07-18 15:00:00,0.574888531617898,0,0.574888531617898
2013-07-18 16:00:00,0.5938541578993702,0,0.5938541578993702
2013-07-18 17:00:00,0.5754334780863063,0,0.5754334780863063
2013-07-18 18:00:00,0.6581519391677808,0,0.6581519391677808
2013-07-18 19:00:00,0.6340659774744423,0,0.6340659774744423
2013-07-18 20:00:00,0.6231810655825496,0,0.6231810655825496
2013-07-18 21:00:00,0.5794087329844357,0,0.5794087329844357
2013-07-18 22:00:00,0.6242330629061874,0,0.6242330629061874
2013-07-18 23:00:00,0.5991945041736627,0,0.5991945041736627
2013-07-19 00:00:00,0.5429611993969151,0,0.5429611993969151
2013-07-19 01:00:00,0.5459950963369962,0,0.5459950963369962
2013-07-19 02:00:00,0.5578827071164545,0,0.5578827071164545
2013-07-19 03:00:00,0.5794786826975903,0,0.5794786826975903
2013-07-19 04:00:00,0.5650348006402165,0,0.5650348006402165
2013-07-19 05:00:00,0.504853701257336,0,0.504853701257336
2013-07-19 06:00:00,0.4795010284758725,0,0.4795010284758725
2013-07-19 07:00:00,0.5111060181901407,0,0.5111060181901407
2013-07-19 08:00:00,0.483739090282275,0,0.483739090282275
2013-07-19 09:00:00,0.4887743804512405,0,0.4887743804512405
2013-07-19 10:00:00,0.5150520808187227,0,0.5150520808187227
2013-07-19 11:00:00,0.4991631440467073,0,0.4991631440467073
2013-07-19 12:00:00,0.5683528600985553,0,0.5683528600985553
2013-07-19 13:00:00,0.5384682389570918,0,0.5384682389570918
2013-07-19 14:00:00,0.6212221520407057,0,0.6212221520407057
2013-07-19 15:00:00,0.6362108856588464,0,0.6362108856588464
2013-07-19 16:00:00,0.6312512667780099,0,0.6312512667780099
2013-07-19 17:00:00,0.6030931272348926,0,0.6030931272348926
2013-07-19 18:00:00,0.6429111628366487,0,0.6429111628366487
2013-07-19 19:00:00,0.609972515296228,0,0.609972515296228
2013-07-19 20:00:00,0.6373699707859191,0,0.6373699707859191
2013-07-19 21:00:00,0.6423896815004598,0,0.6423896815004598
2013-07-19 22:00:00,0.5779115496391742,0,0.5779115496391742
2013-07-19 23:00:00,0.5758970987874888,0,0.5758970987874888
2013-07-20 00:00:00,0.5620331483106885,0,0.5620331483106885
2013-07-20 01:00:00,0.5595025160019307,0,0.5595025160019307
2013-07-20 02:00:00,0.581126213653284,0,0.581126213653284
2013-07-20 03:00:00,0.535835464819329,0,0.535835464819329
2013-07-20 04:00:00,0.5154360010025889,0,0.5154360010025889
2013-07-20 05:00:00,0.5580715493359149,0,0.5580715493359149
2013-07-20 06:00:00,0.5366023373377043,0,0.5366023373377043
2013-07-20 07:00:00,0.510676497839408,0,0.510676497839408
2013-07-20 08:00:00,0.5387606667837121,0,0.5387606667837121
2013-07-20 09:00:00,0.520200348627265,0,0.520200348627265
2013-07-20 10:00:00,0.4591321054515454,0,0.4591321054515454
2013-07-20 11:00:00,0.4920677541886045,0,0.4920677541886045
2013-07-20 12:00:00,0.4271678850985037,0,0.4271678850985037
2013-07-20 13:00:00,0.4843922258999392,0,0.4843922258999392
2013-07-20 14:00:00,0.4647667655376468,0,0.4647667655376468
2013-07-20 15:00:00,0.4126730550198557,0,0.4126730550198557
2013-07-20 16:00:00,0.458671571856073,0,0.458671571856073
2013-07-20 17:00:00,0.4452593601999419,0,0.4452593601999419
2013-07-20 18:00:00,0.4026527527873536,0,0.4026527527873536
2013-07-20 19:00:00,0.38106467574695385,0,0.38106467574695385
2013-07-20 20:00:00,0.3963217449042353,0,0.3963217449042353
2013-07-20 21:00:00,0.37923779090244697,0,0.37923779090244697
2013-07-20 22:00:00,0.395599395194552,0,0.395599395194552
2013-07-20 23:00:00,0.3770448580607232,0,0.3770448580607232
2013-07-21 00:00:00,0.4140659557256437,0,0.4140659557256437
2013-07-21 01:00:00,0.3693218822088241,0,0.3693218822088241
2013-07-21 02:00:00,0.3527061521026675,0,0.3527061521026675
2013-07-21 03:00:00,0.3472230741216354,0,0.3472230741216354
2013-07-21 04:00:00,0.35049725357065864,0,0.35049725357065864
2013-07-21 05:00:00,0.3598187411027519,0,0.3598187411027519
2013-07-21 06:00:00,0.3103486084155901,0,0.3103486084155901
2013-07-21 07:00:00,0.32029818081498096,0,0.32029818081498096
2013-07-21 08:00:00,0.294033555105005,0,0.294033555105005
2013-07-21 09:00:00,0.28552742086152205,0,0.28552742086152205
2013-07-21 10:00:00,0.2873923782715509,0,0.2873923782715509
2013-07-21 11:00:00,0.3247049762407899,0,0.3247049762407899
2013-07-21 12:00:00,0.27716757753516835,0,0.27716757753516835
2013-07-21 13:00:00,0.32779427560366103,0,0.32779427560366103
2013-07-21 14:00:00,0.2951892687510895,0,0.2951892687510895
2013-07-21 15:00:00,0.2719906768211651,0,0.2719906768211651
2013-07-21 16:00:00,0.3195329245076925,0,0.3195329245076925
2013-07-21 17:00:00,0.3108195060646022,0,0.3108195060646022
2013-07-21 18:00:00,0.26250108977786585,0,0.26250108977786585
2013-07-21 19:00:00,0.26431488466839703,0,0.26431488466839703
2013-07-21 20:00:00,0.28405244208031555,0,0.28405244208031555
2013-07-21 21:00:00,0.3098636967667723,0,0.3098636967667723
2013-07-21 22:00:00,0.2458181104807566,0,0.2458181104807566
2013-07-21 23:00:00,0.3087212288205367,0,0.3087212288205367
2013-07-22 00:00:00,0.2723180195352482,0,0.2723180195352482
2013-07-22 01:00:00,0.26813300936235523,0,0.26813300936235523
2013-07-22 02:00:00,0.2749602524536597,0,0.2749602524536597
2013-07-22 03:00:00,0.2468803581773518,0,0.2468803581773518
2013-07-22 04:00:00,0.2503075023237196,0,0.2503075023237196
2013-07-22 05:00:00,0.25757943395373395,0,0.25757943395373395
2013-07-22 06:00:00,0.21383858774798056,0,0.21383858774798056
2013-07-22 07:00:00,0.2608161968471988,0,0.2608161968471988
2013-07-22 08:00:00,0.27747616886323906,0,0.27747616886323906
2013-07-22 09:00:00,0.3341789946067228,0,0.3341789946067228
2013-07-22 10:00:00,0.32028207363235073,0,0.32028207363235073
2013-07-22 11:00:00,0.3539810739185691,0,0.3539810739185691
2013-07-22 12:00:00,0.3883067597927513,0,0.3883067597927513
2013-07-22 13:00:00,0.4445376359072822,0,0.4445376359072822
2013-07-22 14:00:00,0.4257726391657885,0,0.4257726391657885
2013-07-22 15:00:00,0.4487462499235637,0,0.4487462499235637
2013-07-22 16:00:00,0.5152493169759494,0,0.5152493169759494
2013-07-22 17:00:00,0.5304481117982485,0,0.5304481117982485
2013-07-22 18:00:00,0.5000782835079839,0,0.5000782835079839
2013-07-22 19:00:00,0.4894884492084453,0,0.4894884492084453
2013-07-22 20:00:00,0.4901724454537987,0,0.4901724454537987
2013-07-22 21:00:00,0.4626118336461554,0,0.4626118336461554
2013-07-22 22:00:00,0.4757209381062622,0,0.4757209381062622
2013-07-22 23:00:00,0.4608246292347278,0,0.4608246292347278
2013-07-23 00:00:00,0.4217395969861784,0,0.4217395969861784
2013-07-23 01:00:00,0.40203951383922776,0,0.40203951383922776
2013-07-23 02:00:00,0.3997554091708277,0,0.3997554091708277
2013-07-23 03:00:00,0.3716191512276655,0,0.3716191512276655
2013-07-23 04:00:00,0.34861870003256473,0,0.34861870003256473
2013-07-23 05:00:00,0.3151204975474921,0,0.3151204975474921
2013-07-23 06:00:00,0.3253734910681839,0,0.3253734910681839
2013-07-23 07:00:00,0.3057122261896545,0,0.3057122261896545
2013-07-23 08:00:00,0.37151210270834617,0,0.37151210270834617
2013-07-23 09:00:00,0.3927367801266756,0,0.3927367801266756
2013-07-23 10:00:00,0.3854382774857916,0,0.3854382774857916
2013-07-23 11:00:00,0.389247800001406,0,0.389247800001406
2013-07-23 12:00:00,0.4347969242868223,0,0.4347969242868223
2013-07-23 13:00:00,0.4683699303330143,0,0.4683699303330143
2013-07-23 14:00:00,0.4593667758943305,0,0.4593667758943305
2013-07-23 15:00:00,0.521366624833348,0,0.521366624833348
2013-07-23 16:00:00,0.5317006562695168,0,0.5317006562695168
2013-07-23 17:00:00,0.5398480709153735,0,0.5398480709153735
2013-07-23 18:00:00,0.5455694640707517,0,0.5455694640707517
2013-07-23 19:00:00,0.5468187778580829,0,0.5468187778580829
2013-07-23 20:00:00,0.4722553973873314,0,0.4722553973873314
2013-07-23 21:00:00,0.4896655409579728,0,0.4896655409579728
2013-07-23 22:00:00,0.4966762158378629,0,0.4966762158378629
2013-07-23 23:00:00,0.4687791981578189,0,0.4687791981578189
2013-07-24 00:00:00,0.4271503932377153,0,0.4271503932377153
2013-07-24 01:00:00,0.4195704039178357,0,0.4195704039178357
2013-07-24 02:00:00,0.4474435031339209,0,0.4474435031339209
2013-07-24 03:00:00,0.4370537716890964,0,0.4370537716890964
2013-07-24 04:00:00,0.3967357528964226,0,0.3967357528964226
2013-07-24 05:00:00,0.3985804873305212,0,0.3985804873305212
2013-07-24 06:00:00,0.3701731366595484,0,0.3701731366595484
2013-07-24 07:00:00,0.38593966829957205,0,0.38593966829957205
2013-07-24 08:00:00,0.36139729540935417,0,0.36139729540935417
2013-07-24 09:00:00,0.3788438254573767,0,0.3788438254573767
2013-07-24 10:00:00,0.4258520737331195,0,0.4258520737331195
2013-07-24 11:00:00,0.4545659903405117,0,0.4545659903405117
2013-07-24 12:00:00,0.4283650869422728,0,0.4283650869422728
2013-07-24 13:00:00,0.4887354790951766,0,0.4887354790951766
2013-07-24 14:00:00,0.506613237483836,0,0.506613237483836
2013-07-24 15:00:00,0.5542073996504077,0,0.5542073996504077
2013-07-24 16:00:00,0.570458195620462,0,0.570458195620462