timestamp,value,is_anomaly,anomaly_score
2014-07-01 00:00:00,0.2765061624435428,0,0.2765061624435428
2014-07-01 00:30:00,0.2071754829161244,0,0.2071754829161244
2014-07-01 01:00:00,0.15825869504197607,0,0.15825869504197607
2014-07-01 01:30:00,0.118604710505499,0,0.118604710505499
2014-07-01 02:00:00,0.0972721937278318,0,0.0972721937278318
2014-07-01 02:30:00,0.07310724948327336,0,0.07310724948327336
2014-07-01 03:00:00,0.060246497741713236,0,0.060246497741713236
2014-07-01 03:30:00,0.05246370154890403,0,0.05246370154890403
2014-07-01 04:00:00,0.05646992778585828,0,0.05646992778585828
2014-07-01 04:30:00,0.054862333818163266,0,0.054862333818163266
2014-07-01 05:00:00,0.06397203296843502,0,0.06397203296843502
2014-07-01 05:30:00,0.11115364005205544,0,0.11115364005205544
2014-07-01 06:00:00,0.16632218224501774,0,0.16632218224501774
2014-07-01 06:30:00,0.2814820485340274,0,0.2814820485340274
2014-07-01 07:00:00,0.3533899818826712,0,0.3533899818826712
2014-07-01 07:30:00,0.40462884993237896,0,0.40462884993237896
2014-07-01 08:00:00,0.4570670341167165,0,0.4570670341167165
2014-07-01 08:30:00,0.5189721605552579,0,0.5189721605552579
2014-07-01 09:00:00,0.4983796473500217,0,0.4983796473500217
2014-07-01 09:30:00,0.5128735104238434,0,0.5128735104238434
2014-07-01 10:00:00,0.4842175100155656,0,0.4842175100155656
2014-07-01 10:30:00,0.4519635612033989,0,0.4519635612033989
2014-07-01 11:00:00,0.43994488249253616,0,0.43994488249253616
2014-07-01 11:30:00,0.4709229630763735,0,0.4709229630763735
2014-07-01 12:00:00,0.482278190308505,0,0.482278190308505
2014-07-01 12:30:00,0.48171680828804,0,0.48171680828804
2014-07-01 13:00:00,0.46365051417489606,0,0.46365051417489606
2014-07-01 13:30:00,0.4963382581846947,0,0.4963382581846947
2014-07-01 14:00:00,0.4985582689019878,0,0.4985582689019878
2014-07-01 14:30:00,0.5252239148740718,0,0.5252239148740718
2014-07-01 15:00:00,0.4943223863839343,0,0.4943223863839343
2014-07-01 15:30:00,0.472989869606267,0,0.472989869606267
2014-07-01 16:00:00,0.4138916532700503,0,0.4138916532700503
2014-07-01 16:30:00,0.3828880553216464,0,0.3828880553216464
2014-07-01 17:00:00,0.4387710837224731,0,0.4387710837224731
2014-07-01 17:30:00,0.4980224042460895,0,0.4980224042460895
2014-07-01 18:00:00,0.5858276557197173,0,0.5858276557197173
2014-07-01 18:30:00,0.7040240883921508,0,0.7040240883921508
2014-07-01 19:00:00,0.6843502003113119,0,0.6843502003113119
2014-07-01 19:30:00,0.6352803082497641,0,0.6352803082497641
2014-07-01 20:00:00,0.5835055755441578,0,0.5835055755441578
2014-07-01 20:30:00,0.5201969940544541,0,0.5201969940544541
2014-07-01 21:00:00,0.5969277093061829,0,0.5969277093061829
2014-07-01 21:30:00,0.6234147337263007,0,0.6234147337263007
2014-07-01 22:00:00,0.5948097680471561,0,0.5948097680471561
2014-07-01 22:30:00,0.5543647452091148,0,0.5543647452091148
2014-07-01 23:00:00,0.5127969583301437,0,0.5127969583301437
2014-07-01 23:30:00,0.4109061216157595,0,0.4109061216157595
2014-07-02 00:00:00,0.34096302533874295,0,0.34096302533874295
2014-07-02 00:30:00,0.25356605169818064,0,0.25356605169818064
2014-07-02 01:00:00,0.19298782821710173,0,0.19298782821710173
2014-07-02 01:30:00,0.1507821072239659,0,0.1507821072239659
2014-07-02 02:00:00,0.12278955829441934,0,0.12278955829441934
2014-07-02 02:30:00,0.0925259639184465,0,0.0925259639184465
2014-07-02 03:00:00,0.07616933323126387,0,0.07616933323126387
2014-07-02 03:30:00,0.06448238025976677,0,0.06448238025976677
2014-07-02 04:00:00,0.06537548801959732,0,0.06537548801959732
2014-07-02 04:30:00,0.06320651203143739,0,0.06320651203143739
2014-07-02 05:00:00,0.07297966266044043,0,0.07297966266044043
2014-07-02 05:30:00,0.11416468907091275,0,0.11416468907091275
2014-07-02 06:00:00,0.17300773176146367,0,0.17300773176146367
2014-07-02 06:30:00,0.2824772257521243,0,0.2824772257521243
2014-07-02 07:00:00,0.3501237592181479,0,0.3501237592181479
2014-07-02 07:30:00,0.4259358493454796,0,0.4259358493454796
2014-07-02 08:00:00,0.4886064967210186,0,0.4886064967210186
2014-07-02 08:30:00,0.5089438362805889,0,0.5089438362805889
2014-07-02 09:00:00,0.497435504861058,0,0.497435504861058
2014-07-02 09:30:00,0.4844726836612315,0,0.4844726836612315
2014-07-02 10:00:00,0.4415269590956646,0,0.4415269590956646
2014-07-02 10:30:00,0.4566587562836511,0,0.4566587562836511
2014-07-02 11:00:00,0.436984868202812,0,0.436984868202812
2014-07-02 11:30:00,0.4741381510117635,0,0.4741381510117635
2014-07-02 12:00:00,0.4880451147005537,0,0.4880451147005537
2014-07-02 12:30:00,0.4912347852713772,0,0.4912347852713772
2014-07-02 13:00:00,0.4761285054479573,0,0.4761285054479573
2014-07-02 13:30:00,0.4866161422848248,0,0.4866161422848248
2014-07-02 14:00:00,0.4730409043354002,0,0.4730409043354002
2014-07-02 14:30:00,0.4742402204700298,0,0.4742402204700298
2014-07-02 15:00:00,0.4582663502513461,0,0.4582663502513461
2014-07-02 15:30:00,0.4239965296384189,0,0.4239965296384189
2014-07-02 16:00:00,0.3732169741509097,0,0.3732169741509097
2014-07-02 16:30:00,0.35418102018423536,0,0.35418102018423536
2014-07-02 17:00:00,0.4445635254790885,0,0.4445635254790885
2014-07-02 17:30:00,0.5591109750185,0,0.5591109750185
2014-07-02 18:00:00,0.6028477378856312,0,0.6028477378856312
2014-07-02 18:30:00,0.6252775013396616,0,0.6252775013396616
2014-07-02 19:00:00,0.634846513052132,0,0.634846513052132
2014-07-02 19:30:00,0.6854984817168083,0,0.6854984817168083
2014-07-02 20:00:00,0.5614075378294929,0,0.5614075378294929
2014-07-02 20:30:00,0.4657174207047896,0,0.4657174207047896
2014-07-02 21:00:00,0.5316798081094185,0,0.5316798081094185
2014-07-02 21:30:00,0.5758758835387481,0,0.5758758835387481
2014-07-02 22:00:00,0.5714103447395953,0,0.5714103447395953
2014-07-02 22:30:00,0.4860547602643599,0,0.4860547602643599
2014-07-02 23:00:00,0.44680905356094813,0,0.44680905356094813
2014-07-02 23:30:00,0.3903901605042232,0,0.3903901605042232
2014-07-03 00:00:00,0.3224884533925336,0,0.3224884533925336
2014-07-03 00:30:00,0.2693102656357652,0,0.2693102656357652
2014-07-03 01:00:00,0.21455000127586826,0,0.21455000127586826
2014-07-03 01:30:00,0.18091811477710584,0,0.18091811477710584
2014-07-03 02:00:00,0.14846002704840644,0,0.14846002704840644
2014-07-03 02:30:00,0.11163846997882057,0,0.11163846997882057
2014-07-03 03:00:00,0.08323764321620862,0,0.08323764321620862
2014-07-03 03:30:00,0.07502105182576743,0,0.07502105182576743
2014-07-03 04:00:00,0.08007349000995177,0,0.08007349000995177
2014-07-03 04:30:00,0.07831279185485722,0,0.07831279185485722
2014-07-03 05:00:00,0.07634795478322999,0,0.07634795478322999
2014-07-03 05:30:00,0.1169715991732374,0,0.1169715991732374
2014-07-03 06:00:00,0.16530148766235422,0,0.16530148766235422
2014-07-03 06:30:00,0.2578529689453673,0,0.2578529689453673
2014-07-03 07:00:00,0.31212840337849906,0,0.31212840337849906
2014-07-03 07:30:00,0.3716859322769144,0,0.3716859322769144
2014-07-03 08:00:00,0.4279262037816735,0,0.4279262037816735
2014-07-03 08:30:00,0.4823292250376381,0,0.4823292250376381
2014-07-03 09:00:00,0.468039500880349,0,0.468039500880349
2014-07-03 09:30:00,0.4391538441909721,0,0.4391538441909721
2014-07-03 10:00:00,0.4105488785118273,0,0.4105488785118273
2014-07-03 10:30:00,0.4185102962566026,0,0.4185102962566026
2014-07-03 11:00:00,0.4053433361402434,0,0.4053433361402434
2014-07-03 11:30:00,0.4279262037816735,0,0.4279262037816735
2014-07-03 12:00:00,0.4490035469136748,0,0.4490035469136748
2014-07-03 12:30:00,0.4760774707188242,0,0.4760774707188242
2014-07-03 13:00:00,0.4857740692541274,0,0.4857740692541274
2014-07-03 13:30:00,0.4912858200005104,0,0.4912858200005104
2014-07-03 14:00:00,0.4938885911863023,0,0.4938885911863023
2014-07-03 14:30:00,0.4866161422848248,0,0.4866161422848248
2014-07-03 15:00:00,0.4640332746433948,0,0.4640332746433948
2014-07-03 15:30:00,0.4242772206486514,0,0.4242772206486514
2014-07-03 16:00:00,0.3727321442241445,0,0.3727321442241445
2014-07-03 16:30:00,0.3508892801551456,0,0.3508892801551456
2014-07-03 17:00:00,0.4337951976319886,0,0.4337951976319886
2014-07-03 17:30:00,0.4998086197657506,0,0.4998086197657506
2014-07-03 18:00:00,0.5440302125596468,0,0.5440302125596468
2014-07-03 18:30:00,0.5780448595269081,0,0.5780448595269081
2014-07-03 19:00:00,0.7649340376125954,0,0.7649340376125954
2014-07-03 19:30:00,0.5484447166296665,0,0.5484447166296665
2014-07-03 20:00:00,0.5786317589119395,0,0.5786317589119395
2014-07-03 20:30:00,0.5659751460869121,0,0.5659751460869121
2014-07-03 21:00:00,0.5780958942560412,0,0.5780958942560412
2014-07-03 21:30:00,0.4992472377452857,0,0.4992472377452857
2014-07-03 22:00:00,0.4370614202965118,0,0.4370614202965118
2014-07-03 22:30:00,0.4235372170762204,0,0.4235372170762204
2014-07-03 23:00:00,0.41230957666692186,0,0.41230957666692186
2014-07-03 23:30:00,0.4085840414402001,0,0.4085840414402001
2014-07-04 00:00:00,0.39763709204113395,0,0.39763709204113395
2014-07-04 00:30:00,0.3671183240194953,0,0.3671183240194953
2014-07-04 01:00:00,0.3196560259256424,0,0.3196560259256424
2014-07-04 01:30:00,0.28918829263313683,0,0.28918829263313683
2014-07-04 02:00:00,0.2544591594580112,0,0.2544591594580112
2014-07-04 02:30:00,0.2142437929010692,0,0.2142437929010692
2014-07-04 03:00:00,0.18352088596289776,0,0.18352088596289776
2014-07-04 03:30:00,0.16764908520248029,0,0.16764908520248029
2014-07-04 04:00:00,0.14414759243665315,0,0.14414759243665315
2014-07-04 04:30:00,0.11396055015438004,0,0.11396055015438004
2014-07-04 05:00:00,0.08806042511929367,0,0.08806042511929367
2014-07-04 05:30:00,0.08339074740360816,0,0.08339074740360816
2014-07-04 06:00:00,0.0915307867003496,0,0.0915307867003496
2014-07-04 06:30:00,0.10798948684579857,0,0.10798948684579857
2014-07-04 07:00:00,0.12299369721095205,0,0.12299369721095205
2014-07-04 07:30:00,0.12549439893847766,0,0.12549439893847766
2014-07-04 08:00:00,0.13159304906989205,0,0.13159304906989205
2014-07-04 08:30:00,0.14718415882007707,0,0.14718415882007707
2014-07-04 09:00:00,0.18704228227308686,0,0.18704228227308686
2014-07-04 09:30:00,0.1998264819209472,0,0.1998264819209472
2014-07-04 10:00:00,0.21983209574115187,0,0.21983209574115187
2014-07-04 10:30:00,0.2481053356809309,0,0.2481053356809309
2014-07-04 11:00:00,0.2810992880655286,0,0.2810992880655286
2014-07-04 11:30:00,0.3374161116639873,0,0.3374161116639873
2014-07-04 12:00:00,0.3471637449284238,0,0.3471637449284238
2014-07-04 12:30:00,0.3503278981346806,0,0.3503278981346806
2014-07-04 13:00:00,0.397203296843502,0,0.397203296843502
2014-07-04 13:30:00,0.3628058894077419,0,0.3628058894077419
2014-07-04 14:00:00,0.4713567582740055,0,0.4713567582740055
2014-07-04 14:30:00,0.4658705248921891,0,0.4658705248921891
2014-07-04 15:00:00,0.42274617877465615,0,0.42274617877465615
2014-07-04 15:30:00,0.41871443517313534,0,0.41871443517313534
2014-07-04 16:00:00,0.37497767230600426,0,0.37497767230600426
2014-07-04 16:30:00,0.3434892444308352,0,0.3434892444308352
2014-07-04 17:00:00,0.3086835591620097,0,0.3086835591620097
2014-07-04 17:30:00,0.2977366097629437,0,0.2977366097629437
2014-07-04 18:00:00,0.3949832861262089,0,0.3949832861262089
2014-07-04 18:30:00,0.38452116665390795,0,0.38452116665390795
2014-07-04 19:00:00,0.3825308122177142,0,0.3825308122177142
2014-07-04 19:30:00,0.3694659215596213,0,0.3694659215596213
2014-07-04 20:00:00,0.36762867131082705,0,0.36762867131082705
2014-07-04 20:30:00,0.3518334226441093,0,0.3518334226441093
2014-07-04 21:00:00,0.3579575901400903,0,0.3579575901400903
2014-07-04 21:30:00,0.35757482967159154,0,0.35757482967159154
2014-07-04 22:00:00,0.3976881267702672,0,0.3976881267702672
2014-07-04 22:30:00,0.4231034218785884,0,0.4231034218785884
2014-07-04 23:00:00,0.45870014544897797,0,0.45870014544897797
2014-07-04 23:30:00,0.460001531041874,0,0.460001531041874
2014-07-05 00:00:00,0.4482890607058103,0,0.4482890607058103
2014-07-05 00:30:00,0.4128964760519533,0,0.4128964760519533
2014-07-05 01:00:00,0.3682921227895583,0,0.3682921227895583
2014-07-05 01:30:00,0.3196560259256424,0,0.3196560259256424
2014-07-05 02:00:00,0.28063997550333003,0,0.28063997550333003
2014-07-05 02:30:00,0.2333052642323101,0,0.2333052642323101
2014-07-05 03:00:00,0.20418995126183367,0,0.20418995126183367
2014-07-05 03:30:00,0.18086708004797264,0,0.18086708004797264
2014-07-05 04:00:00,0.16328561586159382,0,0.16328561586159382
2014-07-05 04:30:00,0.11260812983235093,0,0.11260812983235093
2014-07-05 05:00:00,0.07956314271862001,0,0.07956314271862001
2014-07-05 05:30:00,0.06394651560386844,0,0.06394651560386844
2014-07-05 06:00:00,0.06486514072826559,0,0.06486514072826559
2014-07-05 06:30:00,0.08012452473908495,0,0.08012452473908495
2014-07-05 07:00:00,0.0931383806680446,0,0.0931383806680446
2014-07-05 07:30:00,0.11066881012529026,0,0.11066881012529026
2014-07-05 08:00:00,0.11926816198423025,0,0.11926816198423025
2014-07-05 08:30:00,0.15922835489550638,0,0.15922835489550638
2014-07-05 09:00:00,0.19000229656281095,0,0.19000229656281095
2014-07-05 09:30:00,0.22970731582842124,0,0.22970731582842124
2014-07-05 10:00:00,0.26211436882798744,0,0.26211436882798744
2014-07-05 10:30:00,0.2929393452244252,0,0.2929393452244252
2014-07-05 11:00:00,0.2956697032330501,0,0.2956697032330501
2014-07-05 11:30:00,0.3340223021766312,0,0.3340223021766312
2014-07-05 12:00:00,0.3219015540075021,0,0.3219015540075021
2014-07-05 12:30:00,0.33231263875066985,0,0.33231263875066985
2014-07-05 13:00:00,0.3382326673301181,0,0.3382326673301181
2014-07-05 13:30:00,0.3404271606828447,0,0.3404271606828447
2014-07-05 14:00:00,0.3524968741228406,0,0.3524968741228406
2014-07-05 14:30:00,0.3497920334787823,0,0.3497920334787823
2014-07-05 15:00:00,0.3549720584857996,0,0.3549720584857996
2014-07-05 15:30:00,0.3622189900227105,0,0.3622189900227105
2014-07-05 16:00:00,0.3360892087065248,0,0.3360892087065248
2014-07-05 16:30:00,0.3495878945622496,0,0.3495878945622496
2014-07-05 17:00:00,0.35441067646533464,0,0.35441067646533464
2014-07-05 17:30:00,0.37592181479496795,0,0.37592181479496795
2014-07-05 18:00:00,0.37171144964148106,0,0.37171144964148106
2014-07-05 18:30:00,0.41024267013702825,0,0.41024267013702825
2014-07-05 19:00:00,0.4637525836331624,0,0.4637525836331624
2014-07-05 19:30:00,0.4300441450407002,0,0.4300441450407002
2014-07-05 20:00:00,0.36061139605501547,0,0.36061139605501547
2014-07-05 20:30:00,0.3692107479139555,0,0.3692107479139555
2014-07-05 21:00:00,0.3900329174002909,0,0.3900329174002909
2014-07-05 21:30:00,0.3942177651892113,0,0.3942177651892113
2014-07-05 22:00:00,0.4092985276480645,0,0.4092985276480645
2014-07-05 22:30:00,0.44576284161371815,0,0.44576284161371815
2014-07-05 23:00:00,0.41805098369440397,0,0.41805098369440397
2014-07-05 23:30:00,0.4337441629028554,0,0.4337441629028554
2014-07-06 00:00:00,0.3934522442522137,0,0.3934522442522137
2014-07-06 00:30:00,0.3727321442241445,0,0.3727321442241445
2014-07-06 01:00:00,0.3346857536553625,0,0.3346857536553625
2014-07-06 01:30:00,0.3116690908163005,0,0.3116690908163005
2014-07-06 02:00:00,0.28390619816785323,0,0.28390619816785323
2014-07-06 02:30:00,0.23315216004491054,0,0.23315216004491054
2014-07-06 03:00:00,0.21985761310571844,0,0.21985761310571844
2014-07-06 03:30:00,0.20100028069101025,0,0.20100028069101025
2014-07-06 04:00:00,0.1826788129322004,0,0.1826788129322004
2014-07-06 04:30:00,0.12240679782592055,0,0.12240679782592055
2014-07-06 05:00:00,0.0789762433335885,0,0.0789762433335885
2014-07-06 05:30:00,0.06795274184082269,0,0.06795274184082269
2014-07-06 06:00:00,0.06384444614560209,0,0.06384444614560209
2014-07-06 06:30:00,0.07423001352420322,0,0.07423001352420322
2014-07-06 07:00:00,0.08117073668631504,0,0.08117073668631504
2014-07-06 07:30:00,0.10459567735844244,0,0.10459567735844244
2014-07-06 08:00:00,0.10497843782694123,0,0.10497843782694123
2014-07-06 08:30:00,0.14407104034295334,0,0.14407104034295334
2014-07-06 09:00:00,0.1620862997269642,0,0.1620862997269642
2014-07-06 09:30:00,0.2142948276302024,0,0.2142948276302024
2014-07-06 10:00:00,0.23894460180152596,0,0.23894460180152596
2014-07-06 10:30:00,0.2821965347418919,0,0.2821965347418919
2014-07-06 11:00:00,0.2956697032330501,0,0.2956697032330501
2014-07-06 11:30:00,0.3291995202735461,0,0.3291995202735461
2014-07-06 12:00:00,0.3497665161142157,0,0.3497665161142157
2014-07-06 12:30:00,0.3480568526882544,0,0.3480568526882544
2014-07-06 13:00:00,0.3645921049274031,0,0.3645921049274031
2014-07-06 13:30:00,0.3774018219398301,0,0.3774018219398301
2014-07-06 14:00:00,0.3946260430222767,0,0.3946260430222767
2014-07-06 14:30:00,0.4088902498149991,0,0.4088902498149991
2014-07-06 15:00:00,0.3739059429942075,0,0.3739059429942075
2014-07-06 15:30:00,0.3783714817933604,0,0.3783714817933604
2014-07-06 16:00:00,0.3493837556457169,0,0.3493837556457169
2014-07-06 16:30:00,0.3714562759958152,0,0.3714562759958152
2014-07-06 17:00:00,0.3925591364923831,0,0.3925591364923831
2014-07-06 17:30:00,0.4301717318635331,0,0.4301717318635331
2014-07-06 18:00:00,0.43086070070683097,0,0.43086070070683097
2014-07-06 18:30:00,0.4304524228737656,0,0.4304524228737656
2014-07-06 19:00:00,0.4342289928296206,0,0.4342289928296206
2014-07-06 19:30:00,0.40511367985914415,0,0.40511367985914415
2014-07-06 20:00:00,0.3694659215596213,0,0.3694659215596213
2014-07-06 20:30:00,0.3610962259817806,0,0.3610962259817806
2014-07-06 21:00:00,0.4115185383653576,0,0.4115185383653576
2014-07-06 21:30:00,0.4122840593023552,0,0.4122840593023552
2014-07-06 22:00:00,0.3576768991298579,0,0.3576768991298579
2014-07-06 22:30:00,0.35627344407869554,0,0.35627344407869554
2014-07-06 23:00:00,0.33657403863328994,0,0.33657403863328994
2014-07-06 23:30:00,0.2895455357370691,0,0.2895455357370691
2014-07-07 00:00:00,0.2211589986986144,0,0.2211589986986144
2014-07-07 00:30:00,0.18301053867156603,0,0.18301053867156603
2014-07-07 01:00:00,0.1319247748092577,0,0.1319247748092577
2014-07-07 01:30:00,0.0931383806680446,0,0.0931383806680446
2014-07-07 02:00:00,0.08096659776978234,0,0.08096659776978234
2014-07-07 02:30:00,0.06108857077241062,0,0.06108857077241062
2014-07-07 03:00:00,0.049401617800913525,0,0.049401617800913525
2014-07-07 03:30:00,0.04769195437495216,0,0.04769195437495216
2014-07-07 04:00:00,0.05738855291025542,0,0.05738855291025542
2014-07-07 04:30:00,0.05797545229528695,0,0.05797545229528695
2014-07-07 05:00:00,0.06550307484243027,0,0.06550307484243027
2014-07-07 05:30:00,0.1063053407844038,0,0.1063053407844038
2014-07-07 06:00:00,0.16172905662303194,0,0.16172905662303194
2014-07-07 06:30:00,0.2701268213018959,0,0.2701268213018959
2014-07-07 07:00:00,0.32213121028860137,0,0.32213121028860137
2014-07-07 07:30:00,0.3798259715736559,0,0.3798259715736559
2014-07-07 08:00:00,0.4200668554951645,0,0.4200668554951645
2014-07-07 08:30:00,0.4845747531194978,0,0.4845747531194978
2014-07-07 09:00:00,0.4538008114521932,0,0.4538008114521932
2014-07-07 09:30:00,0.41817857051723706,0,0.41817857051723706
2014-07-07 10:00:00,0.3603051876802164,0,0.3603051876802164
2014-07-07 10:30:00,0.3611472607109138,0,0.3611472607109138
2014-07-07 11:00:00,0.3609686391589477,0,0.3609686391589477
2014-07-07 11:30:00,0.3844446145602082,0,0.3844446145602082
2014-07-07 12:00:00,0.3873535941207992,0,0.3873535941207992
2014-07-07 12:30:00,0.3948812166679425,0,0.3948812166679425
2014-07-07 13:00:00,0.3911811988057873,0,0.3911811988057873
2014-07-07 13:30:00,0.4142488963739825,0,0.4142488963739825
2014-07-07 14:00:00,0.4228482482329225,0,0.4228482482329225
2014-07-07 14:30:00,0.4306565617902983,0,0.4306565617902983
2014-07-07 15:00:00,0.4291000025517365,0,0.4291000025517365
2014-07-07 15:30:00,0.41414682691571614,0,0.41414682691571614
2014-07-07 16:00:00,0.4004695195080252,0,0.4004695195080252
2014-07-07 16:30:00,0.3859246217050703,0,0.3859246217050703
2014-07-07 17:00:00,0.4463497409987496,0,0.4463497409987496
2014-07-07 17:30:00,0.4888871877312511,0,0.4888871877312511
2014-07-07 18:00:00,0.545816428079308,0,0.545816428079308
2014-07-07 18:30:00,0.5709255148128302,0,0.5709255148128302
2014-07-07 19:00:00,0.5680675699813723,0,0.5680675699813723
2014-07-07 19:30:00,0.5248156370410064,0,0.5248156370410064
2014-07-07 20:00:00,0.4801347316849116,0,0.4801347316849116
2014-07-07 20:30:00,0.456786343106484,0,0.456786343106484
2014-07-07 21:00:00,0.5026665645972084,0,0.5026665645972084
2014-07-07 21:30:00,0.4863099339100258,0,0.4863099339100258
2014-07-07 22:00:00,0.4528566689632295,0,0.4528566689632295
2014-07-07 22:30:00,0.4229503176911889,0,0.4229503176911889
2014-07-07 23:00:00,0.3814080481767843,0,0.3814080481767843
2014-07-07 23:30:00,0.3021511138329633,0,0.3021511138329633
2014-07-08 00:00:00,0.2369032126361989,0,0.2369032126361989
2014-07-08 00:30:00,0.20674168771849244,0,0.20674168771849244
2014-07-08 01:00:00,0.18739952537701907,0,0.18739952537701907
2014-07-08 01:30:00,0.1286330347801679,0,0.1286330347801679
2014-07-08 02:00:00,0.08785628620276098,0,0.08785628620276098
2014-07-08 02:30:00,0.06269616474010564,0,0.06269616474010564
2014-07-08 03:00:00,0.05402026078746587,0,0.05402026078746587
2014-07-08 03:30:00,0.04769195437495216,0,0.04769195437495216
2014-07-08 04:00:00,0.05259128837173697,0,0.05259128837173697
2014-07-08 04:30:00,0.05287197938196943,0,0.05287197938196943
2014-07-08 05:00:00,0.06039960192911276,0,0.06039960192911276
2014-07-08 05:30:00,0.10959708081349358,0,0.10959708081349358
2014-07-08 06:00:00,0.1666028732552502,0,0.1666028732552502
2014-07-08 06:30:00,0.28893311898747104,0,0.28893311898747104
2014-07-08 07:00:00,0.3459389114292276,0,0.3459389114292276
2014-07-08 07:30:00,0.4196840950266657,0,0.4196840950266657
2014-07-08 08:00:00,0.4670188062976856,0,0.4670188062976856
2014-07-08 08:30:00,0.5174921534103958,0,0.5174921534103958
2014-07-08 09:00:00,0.4990175814641864,0,0.4990175814641864
2014-07-08 09:30:00,0.4943223863839343,0,0.4943223863839343
2014-07-08 10:00:00,0.4210109979841282,0,0.4210109979841282
2014-07-08 10:30:00,0.4320344994768941,0,0.4320344994768941
2014-07-08 11:00:00,0.4109571563448927,0,0.4109571563448927
2014-07-08 11:30:00,0.4472938834877134,0,0.4472938834877134
2014-07-08 12:00:00,0.4621705070300339,0,0.4621705070300339
2014-07-08 12:30:00,0.4600780831355738,0,0.4600780831355738
2014-07-08 13:00:00,0.455791165888387,0,0.455791165888387
2014-07-08 13:30:00,0.4700043379519763,0,0.4700043379519763
2014-07-08 14:00:00,0.4838857842762,0,0.4838857842762
2014-07-08 14:30:00,0.4864375207328587,0,0.4864375207328587
2014-07-08 15:00:00,0.47559264079205893,0,0.47559264079205893
2014-07-08 15:30:00,0.46495189976779205,0,0.46495189976779205
2014-07-08 16:00:00,0.4074867947638368,0,0.4074867947638368
2014-07-08 16:30:00,0.383219781061012,0,0.383219781061012
2014-07-08 17:00:00,0.4437469698129577,0,0.4437469698129577
2014-07-08 17:30:00,0.5322156727653168,0,0.5322156727653168
2014-07-08 18:00:00,0.6090229401107453,0,0.6090229401107453
2014-07-08 18:30:00,0.6451300109724668,0,0.6451300109724668
2014-07-08 19:00:00,0.650743831177116,0,0.650743831177116
2014-07-08 19:30:00,0.6258644007246932,0,0.6258644007246932
2014-07-08 20:00:00,0.5591875271121999,0,0.5591875271121999
2014-07-08 20:30:00,0.513026614611243,0,0.513026614611243
2014-07-08 21:00:00,0.5631937533491541,0,0.5631937533491541
2014-07-08 21:30:00,0.5895276735818724,0,0.5895276735818724
2014-07-08 22:00:00,0.6430631044425732,0,0.6430631044425732
2014-07-08 22:30:00,0.5606164995279288,0,0.5606164995279288
2014-07-08 23:00:00,0.4672739799433514,0,0.4672739799433514
2014-07-08 23:30:00,0.3795197631988568,0,0.3795197631988568
2014-07-09 00:00:00,0.3073566562045472,0,0.3073566562045472
2014-07-09 00:30:00,0.2398887442904897,0,0.2398887442904897
2014-07-09 01:00:00,0.19730026282885504,0,0.19730026282885504
2014-07-09 01:30:00,0.14085585240756335,0,0.14085585240756335
2014-07-09 02:00:00,0.11888540151573145,0,0.11888540151573145
2014-07-09 02:30:00,0.08252315700834417,0,0.08252315700834417
2014-07-09 03:00:00,0.06813136339278879,0,0.06813136339278879
2014-07-09 03:30:00,0.06027201510627982,0,0.06027201510627982
2014-07-09 04:00:00,0.06295133838577152,0,0.06295133838577152
2014-07-09 04:30:00,0.05858786904488504,0,0.05858786904488504
2014-07-09 05:00:00,0.06335961621883691,0,0.06335961621883691
2014-07-09 05:30:00,0.10485085100410828,0,0.10485085100410828
2014-07-09 06:00:00,0.16400010206945825,0,0.16400010206945825
2014-07-09 06:30:00,0.2821965347418919,0,0.2821965347418919
2014-07-09 07:00:00,0.3413202684426753,0,0.3413202684426753
2014-07-09 07:30:00,0.43854142744137387,0,0.43854142744137387
2014-07-09 08:00:00,0.4721222792110031,0,0.4721222792110031
2014-07-09 08:30:00,0.5219832095741151,0,0.5219832095741151
2014-07-09 09:00:00,0.5044527801168696,0,0.5044527801168696
2014-07-09 09:30:00,0.4827885375998367,0,0.4827885375998367
2014-07-09 10:00:00,0.4397917783051367,0,0.4397917783051367
2014-07-09 10:30:00,0.4460945673530838,0,0.4460945673530838
2014-07-09 11:00:00,0.42231238357702416,0,0.42231238357702416
2014-07-09 11:30:00,0.4547704713057236,0,0.4547704713057236
2014-07-09 12:00:00,0.4642884482890607,0,0.4642884482890607
2014-07-09 12:30:00,0.4623236112174335,0,0.4623236112174335
2014-07-09 13:00:00,0.4622215417591671,0,0.4622215417591671
2014-07-09 13:30:00,0.4715608971905382,0,0.4715608971905382
2014-07-09 14:00:00,0.4715353798259716,0,0.4715353798259716
2014-07-09 14:30:00,0.4729388348771339,0,0.4729388348771339
2014-07-09 15:00:00,0.4652325907780244,0,0.4652325907780244
2014-07-09 15:30:00,0.4436193829901248,0,0.4436193829901248
2014-07-09 16:00:00,0.3870218683814336,0,0.3870218683814336
2014-07-09 16:30:00,0.39174258082625213,0,0.39174258082625213
2014-07-09 17:00:00,0.4362193472658144,0,0.4362193472658144
2014-07-09 17:30:00,0.4989410293704866,0,0.4989410293704866
2014-07-09 18:00:00,0.5678634310648396,0,0.5678634310648396
2014-07-09 18:30:00,0.6307126999923448,0,0.6307126999923448
2014-07-09 19:00:00,0.6631197529919111,0,0.6631197529919111
2014-07-09 19:30:00,0.6713873791114854,0,0.6713873791114854
2014-07-09 20:00:00,0.6376023884253235,0,0.6376023884253235
2014-07-09 20:30:00,0.5237694250937763,0,0.5237694250937763
2014-07-09 21:00:00,0.5983821990864784,0,0.5983821990864784
2014-07-09 21:30:00,0.629589935951415,0,0.629589935951415
2014-07-09 22:00:00,0.6110643292760723,0,0.6110643292760723
2014-07-09 22:30:00,0.6034091199060961,0,0.6034091199060961
2014-07-09 23:00:00,0.5585240756334686,0,0.5585240756334686
2014-07-09 23:30:00,0.4932506570721376,0,0.4932506570721376
2014-07-10 00:00:00,0.38727704202709945,0,0.38727704202709945
2014-07-10 00:30:00,0.2921993416519942,0,0.2921993416519942
2014-07-10 01:00:00,0.2255479854040675,0,0.2255479854040675
2014-07-10 01:30:00,0.16770011993161346,0,0.16770011993161346
2014-07-10 02:00:00,0.13368547296435224,0,0.13368547296435224
2014-07-10 02:30:00,0.10510602464977416,0,0.10510602464977416
2014-07-10 03:00:00,0.08757559519252851,0,0.08757559519252851
2014-07-10 03:30:00,0.07525070810686672,0,0.07525070810686672
2014-07-10 04:00:00,0.07070861721401414,0,0.07070861721401414
2014-07-10 04:30:00,0.064405828166067,0,0.064405828166067
2014-07-10 05:00:00,0.06915205797545229,0,0.06915205797545229
2014-07-10 05:30:00,0.11332261604021535,0,0.11332261604021535
2014-07-10 06:00:00,0.1682359845875118,0,0.1682359845875118
2014-07-10 06:30:00,0.28564137895838115,0,0.28564137895838115
2014-07-10 07:00:00,0.3553548189542984,0,0.3553548189542984
2014-07-10 07:30:00,0.4380821148791753,0,0.4380821148791753
2014-07-10 08:00:00,0.4860802776289265,0,0.4860802776289265
2014-07-10 08:30:00,0.5385184618132639,0,0.5385184618132639
2014-07-10 09:00:00,0.5071321033963613,0,0.5071321033963613
2014-07-10 09:30:00,0.4852382045982291,0,0.4852382045982291
2014-07-10 10:00:00,0.4333103677052234,0,0.4333103677052234
2014-07-10 10:30:00,0.4330551940595575,0,0.4330551940595575
2014-07-10 11:00:00,0.41779581004873817,0,0.41779581004873817
2014-07-10 11:30:00,0.4543877108372247,0,0.4543877108372247
2014-07-10 12:00:00,0.4598484268544745,0,0.4598484268544745
2014-07-10 12:30:00,0.4462221541759167,0,0.4462221541759167
2014-07-10 13:00:00,0.4355048610579499,0,0.4355048610579499
2014-07-10 13:30:00,0.4650794865906249,0,0.4650794865906249
2014-07-10 14:00:00,0.4614305034576029,0,0.4614305034576029
2014-07-10 14:30:00,0.4717395187425042,0,0.4717395187425042
2014-07-10 15:00:00,0.4469366403837812,0,0.4469366403837812
2014-07-10 15:30:00,0.4262930924494118,0,0.4262930924494118
2014-07-10 16:00:00,0.375794227972135,0,0.375794227972135
2014-07-10 16:30:00,0.3470871928347241,0,0.3470871928347241
2014-07-10 17:00:00,0.4154737298731787,0,0.4154737298731787
2014-07-10 17:30:00,0.4885044272627523,0,0.4885044272627523
2014-07-10 18:00:00,0.5577330373319044,0,0.5577330373319044
2014-07-10 18:30:00,0.6210671361861747,0,0.6210671361861747
2014-07-10 19:00:00,0.6679935696241293,0,0.6679935696241293
2014-07-10 19:30:00,0.6594707698588891,0,0.6594707698588891
2014-07-10 20:00:00,0.6120850238587359,0,0.6120850238587359
2014-07-10 20:30:00,0.5526040470540202,0,0.5526040470540202
2014-07-10 21:00:00,0.6384189440914543,0,0.6384189440914543
2014-07-10 21:30:00,0.6487279593763556,0,0.6487279593763556
2014-07-10 22:00:00,0.6541376406644722,0,0.6541376406644722
2014-07-10 22:30:00,0.628900967108117,0,0.628900967108117
2014-07-10 23:00:00,0.5906249202582358,0,0.5906249202582358
2014-07-10 23:30:00,0.5576820026027712,0,0.5576820026027712
2014-07-11 00:00:00,0.5114445380081145,0,0.5114445380081145
2014-07-11 00:30:00,0.411186812625992,0,0.411186812625992
2014-07-11 01:00:00,0.3342519584577305,0,0.3342519584577305
2014-07-11 01:30:00,0.26788129322003623,0,0.26788129322003623
2014-07-11 02:00:00,0.21526448748373267,0,0.21526448748373267
2014-07-11 02:30:00,0.17525325984332338,0,0.17525325984332338
2014-07-11 03:00:00,0.13695169562887544,0,0.13695169562887544
2014-07-11 03:30:00,0.1112046747811886,0,0.1112046747811886
2014-07-11 04:00:00,0.10653499706550308,0,0.10653499706550308
2014-07-11 04:30:00,0.08270177856031029,0,0.08270177856031029
2014-07-11 05:00:00,0.07976728163515273,0,0.07976728163515273
2014-07-11 05:30:00,0.11768608538110185,0,0.11768608538110185
2014-07-11 06:00:00,0.17140013779376867,0,0.17140013779376867
2014-07-11 06:30:00,0.2715813110821914,0,0.2715813110821914