timestamp,value,is_anomaly,anomaly_score,S(t)_reward_low_FP_rate,S(t)_reward_low_FN_rate,S(t)_standard,predicted_anomaly
2014-05-14 01:14:00,0.839891037741,0,0.5,0.0,0.0,0.0,0
2014-05-14 01:19:00,0.866249957613,0,0.5,0.0,0.0,0.0,0
2014-05-14 01:24:00,0.373749590261,0,0.5,0.0,0.0,0.0,0
2014-05-14 01:29:00,0.505849374371,0,0.5,0.0,0.0,0.0,0
2014-05-14 01:34:00,0.282634987736,0,0.5,0.0,0.0,0.0,0
2014-05-14 01:39:00,0.286704117733,0,0.5,0.0,0.0,0.0,0
2014-05-14 01:44:00,0.285720744651,0,0.5,0.0,0.0,0.0,0
2014-05-14 01:49:00,0.28522340654,0,0.5,0.0,0.0,0.0,0
2014-05-14 01:54:00,0.278486735767,0,0.5,0.0,0.0,0.0,0
2014-05-14 01:59:00,0.310418103107,0,0.5,0.0,0.0,0.0,0
2014-05-14 02:04:00,0.431723389585,0,0.5,0.0,0.0,0.0,0
2014-05-14 02:09:00,0.321122175628,0,0.5,0.0,0.0,0.0,0
2014-05-14 02:14:00,0.28855783251,0,0.5,0.0,0.0,0.0,0
2014-05-14 02:19:00,0.2779441851,0,0.5,0.0,0.0,0.0,0
2014-05-14 02:24:00,0.280430875654,0,0.5,0.0,0.0,0.0,0
2014-05-14 02:29:00,0.292310474619,0,0.5,0.0,0.0,0.0,0
2014-05-14 02:34:00,0.278362401239,0,0.5,0.0,0.0,0.0,0
2014-05-14 02:39:00,0.283267963513,0,0.5,0.0,0.0,0.0,0
2014-05-14 02:44:00,0.283652270235,0,0.5,0.0,0.0,0.0,0
2014-05-14 02:49:00,0.275355766296,0,0.5,0.0,0.0,0.0,0
2014-05-14 02:54:00,0.281097760848,0,0.5,0.0,0.0,0.0,0
2014-05-14 02:59:00,0.325134789931,0,0.5,0.0,0.0,0.0,0
2014-05-14 03:04:00,0.431734692724,0,0.5,0.0,0.0,0.0,0
2014-05-14 03:09:00,0.290999310509,0,0.5,0.0,0.0,0.0,0
2014-05-14 03:14:00,0.395349888664,0,0.5,0.0,0.0,0.0,0
2014-05-14 03:19:00,0.306823704943,0,0.5,0.0,0.0,0.0,0
2014-05-14 03:24:00,0.284680855874,0,0.5,0.0,0.0,0.0,0
2014-05-14 03:29:00,0.442450068384,0,0.5,0.0,0.0,0.0,0
2014-05-14 03:34:00,0.300493947169,0,0.5,0.0,0.0,0.0,0
2014-05-14 03:39:00,0.282940172486,0,0.5,0.0,0.0,0.0,0
2014-05-14 03:44:00,0.325439974681,0,0.5,0.0,0.0,0.0,0
2014-05-14 03:49:00,0.29270608448,0,0.5,0.0,0.0,0.0,0
2014-05-14 03:54:00,0.262662341332,0,0.5,0.0,0.0,0.0,0
2014-05-14 03:59:00,0.292513931119,0,0.5,0.0,0.0,0.0,0
2014-05-14 04:04:00,0.673407105153,0,0.5,0.0,0.0,0.0,0
2014-05-14 04:09:00,0.247550044647,0,0.5,0.0,0.0,0.0,0
2014-05-14 04:14:00,0.248363870647,0,0.5,0.0,0.0,0.0,0
2014-05-14 04:19:00,0.230018876242,0,0.5,0.0,0.0,0.0,0
2014-05-14 04:24:00,0.227034847577,0,0.5,0.0,0.0,0.0,0
2014-05-14 04:29:00,0.247075312814,0,0.5,0.0,0.0,0.0,0
2014-05-14 04:34:00,0.231533496852,0,0.5,0.0,0.0,0.0,0
2014-05-14 04:39:00,0.231420465463,0,0.5,0.0,0.0,0.0,0
2014-05-14 04:44:00,0.231499587435,0,0.5,0.0,0.0,0.0,0
2014-05-14 04:49:00,0.222016253914,0,0.5,0.0,0.0,0.0,0
2014-05-14 04:54:00,0.218218399249,0,0.5,0.0,0.0,0.0,0
2014-05-14 04:59:00,0.254060652643,0,0.5,0.0,0.0,0.0,0
2014-05-14 05:04:00,0.379751557007,0,0.5,0.0,0.0,0.0,0
2014-05-14 05:09:00,0.233217664545,0,0.5,0.0,0.0,0.0,0
2014-05-14 05:14:00,0.237196369432,0,0.5,0.0,0.0,0.0,0
2014-05-14 05:19:00,0.220162539137,0,0.5,0.0,0.0,0.0,0
2014-05-14 05:24:00,0.221202427914,0,0.5,0.0,0.0,0.0,0
2014-05-14 05:29:00,0.238959659097,0,0.5,0.0,0.0,0.0,0
2014-05-14 05:34:00,0.216375987612,0,0.5,0.0,0.0,0.0,0
2014-05-14 05:39:00,0.223813452996,0,0.5,0.0,0.0,0.0,0
2014-05-14 05:44:00,0.234517525517,0,0.5,0.0,0.0,0.0,0
2014-05-14 05:49:00,0.21781148625,0,0.5,0.0,0.0,0.0,0
2014-05-14 05:54:00,0.22184670683,0,0.5,0.0,0.0,0.0,0
2014-05-14 05:59:00,0.255665698364,0,0.5,0.0,0.0,0.0,0
2014-05-14 06:04:00,0.374586022538,0,0.5,0.0,0.0,0.0,0
2014-05-14 06:09:00,0.23337590849,0,0.5,0.0,0.0,0.0,0
2014-05-14 06:14:00,0.249799369285,0,0.5,0.0,0.0,0.0,0
2014-05-14 06:19:00,0.222016253914,0,0.5,0.0,0.0,0.0,0
2014-05-14 06:24:00,0.226367962383,0,0.5,0.0,0.0,0.0,0
2014-05-14 06:29:00,0.230990946186,0,0.5,0.0,0.0,0.0,0
2014-05-14 06:34:00,0.222581410858,0,0.5,0.0,0.0,0.0,0
2014-05-14 06:39:00,0.220219054832,0,0.5,0.0,0.0,0.0,0
2014-05-14 06:44:00,0.23337590849,0,0.5,0.0,0.0,0.0,0
2014-05-14 06:49:00,0.223892574968,0,0.5,0.0,0.0,0.0,0
2014-05-14 06:54:00,0.221394581275,0,0.5,0.0,0.0,0.0,0
2014-05-14 06:59:00,0.258423664252,0,0.5,0.0,0.0,0.0,0
2014-05-14 07:04:00,0.374020865594,0,0.5,0.0,0.0,0.0,0
2014-05-14 07:09:00,0.238371895875,0,0.5,0.0,0.0,0.0,0
2014-05-14 07:14:00,0.23378282149,0,0.5,0.0,0.0,0.0,0
2014-05-14 07:19:00,0.215426523946,0,0.5,0.0,0.0,0.0,0
2014-05-14 07:24:00,0.220705089803,0,0.5,0.0,0.0,0.0,0
2014-05-14 07:29:00,0.235150501294,0,0.5,0.0,0.0,0.0,0
2014-05-14 07:34:00,0.226684450272,0,0.5,0.0,0.0,0.0,0
2014-05-14 07:39:00,0.218647918527,0,0.5,0.0,0.0,0.0,0
2014-05-14 07:44:00,0.227554791966,0,0.5,0.0,0.0,0.0,0
2014-05-14 07:49:00,0.221507612664,0,0.5,0.0,0.0,0.0,0
2014-05-14 07:54:00,0.232595991907,0,0.5,0.0,0.0,0.0,0
2014-05-14 07:59:00,0.257270744086,0,0.5,0.0,0.0,0.0,0
2014-05-14 08:04:00,0.381480937256,0,0.5,0.0,0.0,0.0,0
2014-05-14 08:09:00,0.246555368426,0,0.5,0.0,0.0,0.0,0
2014-05-14 08:14:00,0.233715002656,0,0.5,0.0,0.0,0.0,0
2014-05-14 08:19:00,0.223259599191,0,0.5,0.0,0.0,0.0,0
2014-05-14 08:24:00,0.229996269964,0,0.5,0.0,0.0,0.0,0
2014-05-14 08:29:00,0.23317245199,0,0.5,0.0,0.0,0.0,0
2014-05-14 08:34:00,0.208689853172,0,0.5,0.0,0.0,0.0,0
2014-05-14 08:39:00,0.218320127499,0,0.5,0.0,0.0,0.0,0
2014-05-14 08:44:00,0.240643826791,0,0.5,0.0,0.0,0.0,0
2014-05-14 08:49:00,0.223361327441,0,0.5,0.0,0.0,0.0,0
2014-05-14 08:54:00,0.229465022437,0,0.5,0.0,0.0,0.0,0
2014-05-14 08:59:00,0.246634490398,0,0.5,0.0,0.0,0.0,0
2014-05-14 09:04:00,0.384001537227,0,0.5,0.0,0.0,0.0,0
2014-05-14 09:09:00,0.233195058268,0,0.5,0.0,0.0,0.0,0
2014-05-14 09:14:00,0.234223643906,0,0.5,0.0,0.0,0.0,0
2014-05-14 09:19:00,0.219473047665,0,0.5,0.0,0.0,0.0,0
2014-05-14 09:24:00,0.229408506742,0,0.5,0.0,0.0,0.0,0
2014-05-14 09:29:00,0.235817386488,0,0.5,0.0,0.0,0.0,0
2014-05-14 09:34:00,0.234551434933,0,0.5,0.0,0.0,0.0,0
2014-05-14 09:39:00,0.216952447695,0,0.5,0.0,0.0,0.0,0
2014-05-14 09:44:00,0.238914446542,0,0.5,0.0,0.0,0.0,0
2014-05-14 09:49:00,0.210769630726,0,0.5,0.0,0.0,0.0,0
2014-05-14 09:54:00,0.219563472776,0,0.5,0.0,0.0,0.0,0
2014-05-14 09:59:00,0.263623108137,0,0.5,0.0,0.0,0.0,0
2014-05-14 10:04:00,0.374800782177,0,0.5,0.0,0.0,0.0,0
2014-05-14 10:09:00,0.231488284297,0,0.5,0.0,0.0,0.0,0
2014-05-14 10:14:00,0.233319392795,0,0.5,0.0,0.0,0.0,0
2014-05-14 10:19:00,0.221925828803,0,0.5,0.0,0.0,0.0,0
2014-05-14 10:24:00,0.223802149857,0,0.5,0.0,0.0,0.0,0
2014-05-14 10:29:00,0.237139853737,0,0.5,0.0,0.0,0.0,0
2014-05-14 10:34:00,0.219563472776,0,0.5,0.0,0.0,0.0,0
2014-05-14 10:39:00,0.222004950775,0,0.5,0.0,0.0,0.0,0
2014-05-14 10:44:00,0.235580020572,0,0.5,0.0,0.0,0.0,0
2014-05-14 10:49:00,0.21801494275,0,0.5,0.0,0.0,0.0,0
2014-05-14 10:54:00,0.218331430638,0,0.5,0.0,0.0,0.0,0
2014-05-14 10:59:00,0.258016751252,0,0.5,0.0,0.0,0.0,0
2014-05-14 11:04:00,0.38012456059,0,0.5,0.0,0.0,0.0,0
2014-05-14 11:09:00,0.233398514768,0,0.5,0.0,0.0,0.0,0
2014-05-14 11:14:00,0.243853918233,0,0.5,0.0,0.0,0.0,0
2014-05-14 11:19:00,0.232098653796,0,0.5,0.0,0.0,0.0,0
2014-05-14 11:24:00,0.224423822496,0,0.5,0.0,0.0,0.0,0
2014-05-14 11:29:00,0.233251573962,0,0.5,0.0,0.0,0.0,0
2014-05-14 11:34:00,0.218116671,0,0.5,0.0,0.0,0.0,0
2014-05-14 11:39:00,0.219201772332,0,0.5,0.0,0.0,0.0,0
2014-05-14 11:44:00,0.237580676154,0,0.5,0.0,0.0,0.0,0
2014-05-14 11:49:00,0.21952956336,0,0.5,0.0,0.0,0.0,0
2014-05-14 11:54:00,0.216161227973,0,0.5,0.0,0.0,0.0,0
2014-05-14 11:59:00,0.258401057974,0,0.5,0.0,0.0,0.0,0
2014-05-14 12:04:00,0.385776130031,0,0.5,0.0,0.0,0.0,0
2014-05-14 12:09:00,0.233918459156,0,0.5,0.0,0.0,0.0,0
2014-05-14 12:14:00,0.23458534435,0,0.5,0.0,0.0,0.0,0
2014-05-14 12:19:00,0.219382622554,0,0.5,0.0,0.0,0.0,0
2014-05-14 12:24:00,0.219213075471,0,0.5,0.0,0.0,0.0,0
2014-05-14 12:29:00,0.233319392795,0,0.5,0.0,0.0,0.0,0
2014-05-14 12:34:00,0.21952956336,0,0.5,0.0,0.0,0.0,0
2014-05-14 12:39:00,0.222084072747,0,0.5,0.0,0.0,0.0,0
2014-05-14 12:44:00,0.236326027738,0,0.5,0.0,0.0,0.0,0
2014-05-14 12:49:00,0.230617942603,0,0.5,0.0,0.0,0.0,0
2014-05-14 12:54:00,0.23145437488,0,0.5,0.0,0.0,0.0,0
2014-05-14 12:59:00,0.260706898306,0,0.5,0.0,0.0,0.0,0
2014-05-14 13:04:00,0.380802748923,0,0.5,0.0,0.0,0.0,0
2014-05-14 13:09:00,0.275977438935,0,0.5,0.0,0.0,0.0,0
2014-05-14 13:14:00,0.250748832951,0,0.5,0.0,0.0,0.0,0
2014-05-14 13:19:00,0.218105367861,0,0.5,0.0,0.0,0.0,0
2014-05-14 13:24:00,0.22124764047,0,0.5,0.0,0.0,0.0,0
2014-05-14 13:29:00,0.233364605351,0,0.5,0.0,0.0,0.0,0
2014-05-14 13:34:00,0.220727696081,0,0.5,0.0,0.0,0.0,0
2014-05-14 13:39:00,0.22386996869,0,0.5,0.0,0.0,0.0,0
2014-05-14 13:44:00,0.244520803427,0,0.5,0.0,0.0,0.0,0
2014-05-14 13:49:00,0.230357970408,0,0.5,0.0,0.0,0.0,0
2014-05-14 13:54:00,0.215008307807,0,0.5,0.0,0.0,0.0,0
2014-05-14 13:59:00,0.258887092946,0,0.5,0.0,0.0,0.0,0
2014-05-14 14:04:00,0.372732307762,0,0.5,0.0,0.0,0.0,0
2014-05-14 14:09:00,0.382034791061,0,0.5,0.0,0.0,0.0,0
2014-05-14 14:14:00,0.231533496852,0,0.5,0.0,0.0,0.0,0
2014-05-14 14:19:00,0.224536853884,0,0.5,0.0,0.0,0.0,0
2014-05-14 14:24:00,0.228379921104,0,0.5,0.0,0.0,0.0,0
2014-05-14 14:29:00,0.244735563066,0,0.5,0.0,0.0,0.0,0
2014-05-14 14:34:00,0.225667167772,0,0.5,0.0,0.0,0.0,0
2014-05-14 14:39:00,0.227543488827,0,0.5,0.0,0.0,0.0,0
2014-05-14 14:44:00,0.231420465463,0,0.5,0.0,0.0,0.0,0
2014-05-14 14:49:00,0.221959738219,0,0.5,0.0,0.0,0.0,0
2014-05-14 14:54:00,0.227645217077,0,0.5,0.0,0.0,0.0,0
2014-05-14 14:59:00,0.239999547874,0,0.5,0.0,0.0,0.0,0
2014-05-14 15:04:00,0.393247504832,0,0.5,0.0,0.0,0.0,0
2014-05-14 15:09:00,0.270145019272,0,0.5,0.0,0.0,0.0,0
2014-05-14 15:14:00,0.233884549739,0,0.5,0.0,0.0,0.0,0
2014-05-14 15:19:00,0.234551434933,0,0.5,0.0,0.0,0.0,0
2014-05-14 15:24:00,0.222592713997,0,0.5,0.0,0.0,0.0,0
2014-05-14 15:29:00,0.237139853737,0,0.5,0.0,0.0,0.0,0
2014-05-14 15:34:00,0.217788879972,0,0.5,0.0,0.0,0.0,0
2014-05-14 15:39:00,0.226650540855,0,0.5,0.0,0.0,0.0,0
2014-05-14 15:44:00,0.232652507601,0,0.5,0.0,0.0,0.0,0
2014-05-14 15:49:00,0.221462400109,0,0.5,0.0,0.0,0.0,0
2014-05-14 15:54:00,0.222479682608,0,0.5,0.0,0.0,0.0,0
2014-05-14 15:59:00,0.262289337749,0,0.5,0.0,0.0,0.0,0
2014-05-14 16:04:00,0.372562760679,0,0.5,0.0,0.0,0.0,0
2014-05-14 16:09:00,0.333114805982,0,0.5,0.0,0.0,0.0,0
2014-05-14 16:14:00,0.22568977405,0,0.5,0.0,0.0,0.0,0
2014-05-14 16:19:00,0.226334052967,0,0.5,0.0,0.0,0.0,0
2014-05-14 16:24:00,0.221959738219,0,0.5,0.0,0.0,0.0,0
2014-05-14 16:29:00,0.236529484238,0,0.5,0.0,0.0,0.0,0
2014-05-14 16:34:00,0.214827457585,0,0.5,0.0,0.0,0.0,0
2014-05-14 16:39:00,0.229419809881,0,0.5,0.0,0.0,0.0,0
2014-05-14 16:44:00,0.234913135378,0,0.5,0.0,0.0,0.0,0
2014-05-14 16:49:00,0.218048852166,0,0.5,0.0,0.0,0.0,0
2014-05-14 16:54:00,0.219473047665,0,0.5,0.0,0.0,0.0,0
2014-05-14 16:59:00,0.255925670559,0,0.5,0.0,0.0,0.0,0
2014-05-14 17:04:00,0.380802748923,0,0.5,0.0,0.0,0.0,0
2014-05-14 17:09:00,0.308021837664,0,0.5,0.0,0.0,0.0,0
2014-05-14 17:14:00,0.238315380181,0,0.5,0.0,0.0,0.0,0
2014-05-14 17:19:00,0.226435781216,0,0.5,0.0,0.0,0.0,0
2014-05-14 17:24:00,0.218229702388,0,0.5,0.0,0.0,0.0,0
2014-05-14 17:29:00,0.233771518351,0,0.5,0.0,0.0,0.0,0
2014-05-14 17:34:00,0.215776921251,0,0.5,0.0,0.0,0.0,0
2014-05-14 17:39:00,0.235738264516,0,0.5,0.0,0.0,0.0,0
2014-05-14 17:44:00,0.240745555041,0,0.5,0.0,0.0,0.0,0
2014-05-14 17:49:00,0.227000938161,0,0.5,0.0,0.0,0.0,0
2014-05-14 17:54:00,0.221925828803,0,0.5,0.0,0.0,0.0,0
2014-05-14 17:59:00,0.261260752111,0,0.5,0.0,0.0,0.0,0
2014-05-14 18:04:00,0.376326705926,0,0.5,0.0,0.0,0.0,0
2014-05-14 18:09:00,0.304065739056,0,0.5,0.0,0.0,0.0,0
2014-05-14 18:14:00,0.238857930847,0,0.5,0.0,0.0,0.0,0
2014-05-14 18:19:00,0.220727696081,0,0.5,0.0,0.0,0.0,0
2014-05-14 18:24:00,0.22761130766,0,0.5,0.0,0.0,0.0,0
2014-05-14 18:29:00,0.235466989183,0,0.5,0.0,0.0,0.0,0
2014-05-14 18:34:00,0.227656520216,0,0.5,0.0,0.0,0.0,0
2014-05-14 18:39:00,0.225169829662,0,0.5,0.0,0.0,0.0,0
2014-05-14 18:44:00,0.240621220513,0,0.5,0.0,0.0,0.0,0
2014-05-14 18:49:00,0.220648574109,0,0.5,0.0,0.0,0.0,0
2014-05-14 18:54:00,0.214307513196,0,0.5,0.0,0.0,0.0,0
2014-05-14 18:59:00,0.261294661528,0,0.5,0.0,0.0,0.0,0
2014-05-14 19:04:00,0.382113913034,0,0.5,0.0,0.0,0.0,0
2014-05-14 19:09:00,0.24004476043,0,0.5,0.0,0.0,0.0,0
2014-05-14 19:14:00,0.242667088651,0,0.5,0.0,0.0,0.0,0
2014-05-14 19:19:00,0.218727040499,0,0.5,0.0,0.0,0.0,0
2014-05-14 19:24:00,0.232742932712,0,0.5,0.0,0.0,0.0,0
2014-05-14 19:29:00,0.244554712844,0,0.5,0.0,0.0,0.0,0
2014-05-14 19:34:00,0.220151235998,0,0.5,0.0,0.0,0.0,0
2014-05-14 19:39:00,0.2175063015,0,0.5,0.0,0.0,0.0,0
2014-05-14 19:44:00,0.234675769461,0,0.5,0.0,0.0,0.0,0
2014-05-14 19:49:00,0.21952956336,0,0.5,0.0,0.0,0.0,0
2014-05-14 19:54:00,0.218241005527,0,0.5,0.0,0.0,0.0,0
2014-05-14 19:59:00,0.258717545862,0,0.5,0.0,0.0,0.0,0
2014-05-14 20:04:00,0.385866555142,0,0.5,0.0,0.0,0.0,0
2014-05-14 20:09:00,0.312972612494,0,0.5,0.0,0.0,0.0,0
2014-05-14 20:14:00,0.245515479649,0,0.5,0.0,0.0,0.0,0
2014-05-14 20:19:00,0.216274259362,0,0.5,0.0,0.0,0.0,0
2014-05-14 20:24:00,0.225124617106,0,0.5,0.0,0.0,0.0,0
2014-05-14 20:29:00,0.238857930847,0,0.5,0.0,0.0,0.0,0
2014-05-14 20:34:00,0.22397169694,0,0.5,0.0,0.0,0.0,0
2014-05-14 20:39:00,0.22255880458,0,0.5,0.0,0.0,0.0,0
2014-05-14 20:44:00,0.231171796408,0,0.5,0.0,0.0,0.0,0
2014-05-14 20:49:00,0.223937787524,0,0.5,0.0,0.0,0.0,0
2014-05-14 20:54:00,0.217461088944,0,0.5,0.0,0.0,0.0,0
2014-05-14 20:59:00,0.261735483944,0,0.5,0.0,0.0,0.0,0
2014-05-14 21:04:00,0.388353245696,0,0.5,0.0,0.0,0.0,0
2014-05-14 21:09:00,0.393428355054,0,0.5,0.0,0.0,0.0,0
2014-05-14 21:14:00,0.697403668999,0,0.5,0.0,0.0,0.0,0
2014-05-14 21:19:00,0.542663697709,0,0.5,0.0,0.0,0.0,0
2014-05-14 21:24:00,0.212374676448,0,0.5,0.0,0.0,0.0,0
2014-05-14 21:29:00,0.245854573815,0,0.5,0.0,0.0,0.0,0
2014-05-14 21:34:00,0.217110691639,0,0.5,0.0,0.0,0.0,0
2014-05-14 21:39:00,0.221304156164,0,0.5,0.0,0.0,0.0,0
2014-05-14 21:44:00,0.234980954211,0,0.5,0.0,0.0,0.0,0
2014-05-14 21:49:00,0.223824756135,0,0.5,0.0,0.0,0.0,0
2014-05-14 21:54:00,0.221417187553,0,0.5,0.0,0.0,0.0,0
2014-05-14 21:59:00,0.269319890133,0,0.5,0.0,0.0,0.0,0
2014-05-14 22:04:00,0.376451040454,0,0.5,0.0,0.0,0.0,0
2014-05-14 22:09:00,0.468119496784,0,0.5,0.0,0.0,0.0,0
2014-05-14 22:14:00,0.237705010681,0,0.5,0.0,0.0,0.0,0
2014-05-14 22:19:00,0.220049507748,0,0.5,0.0,0.0,0.0,0
2014-05-14 22:24:00,0.22568977405,0,0.5,0.0,0.0,0.0,0
2014-05-14 22:29:00,0.237026822349,0,0.5,0.0,0.0,0.0,0
2014-05-14 22:34:00,0.222570107719,0,0.5,0.0,0.0,0.0,0
2014-05-14 22:39:00,0.229092018854,0,0.5,0.0,0.0,0.0,0
2014-05-14 22:44:00,0.24014648868,0,0.5,0.0,0.0,0.0,0
2014-05-14 22:49:00,0.225734986606,0,0.5,0.0,0.0,0.0,0
2014-05-14 22:54:00,0.221824100553,0,0.5,0.0,0.0,0.0,0
2014-05-14 22:59:00,0.255530060698,0,0.5,0.0,0.0,0.0,0
2014-05-14 23:04:00,0.378937731008,0,0.5,0.0,0.0,0.0,0
2014-05-14 23:09:00,0.452283799211,0,0.5,0.0,0.0,0.0,0
2014-05-14 23:14:00,0.23812322682,0,0.5,0.0,0.0,0.0,0
2014-05-14 23:19:00,0.229453719298,0,0.5,0.0,0.0,0.0,0
2014-05-14 23:24:00,0.223847362413,0,0.5,0.0,0.0,0.0,0
2014-05-14 23:29:00,0.23883532457,0,0.5,0.0,0.0,0.0,0
2014-05-14 23:34:00,0.220117326582,0,0.5,0.0,0.0,0.0,0
2014-05-14 23:39:00,0.220693786665,0,0.5,0.0,0.0,0.0,0
2014-05-14 23:44:00,0.242000203456,0,0.5,0.0,0.0,0.0,0
2014-05-14 23:49:00,0.220106023443,0,0.5,0.0,0.0,0.0,0
2014-05-14 23:54:00,0.21497439839,0,0.5,0.0,0.0,0.0,0
2014-05-14 23:59:00,0.252896429338,0,0.5,0.0,0.0,0.0,0
2014-05-15 00:04:00,0.386556046614,0,0.5,0.0,0.0,0.0,0
2014-05-15 00:09:00,0.382125216173,0,0.5,0.0,0.0,0.0,0
2014-05-15 00:14:00,0.250907076895,0,0.5,0.0,0.0,0.0,0
2014-05-15 00:19:00,0.221417187553,0,0.5,0.0,0.0,0.0,0
2014-05-15 00:24:00,0.224853341773,0,0.5,0.0,0.0,0.0,0
2014-05-15 00:29:00,0.239321359542,0,0.5,0.0,0.0,0.0,0
2014-05-15 00:34:00,0.22073899922,0,0.5,0.0,0.0,0.0,0
2014-05-15 00:39:00,0.221880616247,0,0.5,0.0,0.0,0.0,0
2014-05-15 00:44:00,0.230753580269,0,0.5,0.0,0.0,0.0,0
2014-05-15 00:49:00,0.220072114026,0,0.5,0.0,0.0,0.0,0
2014-05-15 00:54:00,0.220015598332,0,0.5,0.0,0.0,0.0,0
2014-05-15 00:59:00,0.2609668705,0,0.5,0.0,0.0,0.0,0
2014-05-15 01:04:00,0.373229645873,0,0.5,0.0,0.0,0.0,0
2014-05-15 01:09:00,0.400673667077,0,0.5,0.0,0.0,0.0,0
2014-05-15 01:14:00,0.227215697799,0,0.5,0.0,0.0,0.0,0
2014-05-15 01:19:00,0.222095375886,0,0.5,0.0,0.0,0.0,0
2014-05-15 01:24:00,0.231318737213,0,0.5,0.0,0.0,0.0,0
2014-05-15 01:29:00,0.225961049383,0,0.5,0.0,0.0,0.0,0
2014-05-15 01:34:00,0.223756937301,0,0.5,0.0,0.0,0.0,0
2014-05-15 01:39:00,0.215776921251,0,0.5,0.0,0.0,0.0,0
2014-05-15 01:44:00,0.234020187406,0,0.5,0.0,0.0,0.0,0
2014-05-15 01:49:00,0.217992336472,0,0.5,0.0,0.0,0.0,0
2014-05-15 01:54:00,0.227645217077,0,0.5,0.0,0.0,0.0,0
2014-05-15 01:59:00,0.258276723446,0,0.5,0.0,0.0,0.0,0
2014-05-15 02:04:00,0.381435724701,0,0.5,0.0,0.0,0.0,0
2014-05-15 02:09:00,0.393428355054,0,0.5,0.0,0.0,0.0,0
2014-05-15 02:14:00,0.244419075177,0,0.5,0.0,0.0,0.0,0
2014-05-15 02:19:00,0.219970385776,0,0.5,0.0,0.0,0.0,0
2014-05-15 02:24:00,0.210713115032,0,0.5,0.0,0.0,0.0,0
2014-05-15 02:29:00,0.231996925546,0,0.5,0.0,0.0,0.0,0
2014-05-15 02:34:00,0.221462400109,0,0.5,0.0,0.0,0.0,0
2014-05-15 02:39:00,0.223892574968,0,0.5,0.0,0.0,0.0,0
2014-05-15 02:44:00,0.233839337184,0,0.5,0.0,0.0,0.0,0
2014-05-15 02:49:00,0.219619988471,0,0.5,0.0,0.0,0.0,0
2014-05-15 02:54:00,0.218207096111,0,0.5,0.0,0.0,0.0,0
2014-05-15 02:59:00,0.255823942309,0,0.5,0.0,0.0,0.0,0
2014-05-15 03:04:00,0.380181076285,0,0.5,0.0,0.0,0.0,0
2014-05-15 03:09:00,0.382023487923,0,0.5,0.0,0.0,0.0,0
2014-05-15 03:14:00,0.237060731765,0,0.5,0.0,0.0,0.0,0
2014-05-15 03:19:00,0.264990787942,0,0.5,0.0,0.0,0.0,0
2014-05-15 03:24:00,0.22417515344,0,0.5,0.0,0.0,0.0,0
2014-05-15 03:29:00,0.247256163036,0,0.5,0.0,0.0,0.0,0
2014-05-15 03:34:00,0.273456838964,0,0.5,0.0,0.0,0.0,0
2014-05-15 03:39:00,0.230855308519,0,0.5,0.0,0.0,0.0,0
2014-05-15 03:44:00,0.240779464457,0,0.5,0.0,0.0,0.0,0
2014-05-15 03:49:00,0.233319392795,0,0.5,0.0,0.0,0.0,0
2014-05-15 03:54:00,0.211266968837,0,0.5,0.0,0.0,0.0,0
2014-05-15 03:59:00,0.25520226967,0,0.5,0.0,0.0,0.0,0
2014-05-15 04:04:00,0.384024143505,0,0.5,0.0,0.0,0.0,0
2014-05-15 04:09:00,0.390286082445,0,0.5,0.0,0.0,0.0,0
2014-05-15 04:14:00,0.239456997208,0,0.5,0.0,0.0,0.0,0
2014-05-15 04:19:00,0.218229702388,0,0.5,0.0,0.0,0.0,0
2014-05-15 04:24:00,0.231409162324,0,0.5,0.0,0.0,0.0,0
2014-05-15 04:29:00,0.223451752552,0,0.5,0.0,0.0,0.0,0
2014-05-15 04:34:00,0.227633913938,0,0.5,0.0,0.0,0.0,0
2014-05-15 04:39:00,0.222581410858,0,0.5,0.0,0.0,0.0,0
2014-05-15 04:44:00,0.232256897741,0,0.5,0.0,0.0,0.0,0
2014-05-15 04:49:00,0.222027557053,0,0.5,0.0,0.0,0.0,0
2014-05-15 04:54:00,0.216884628861,0,0.5,0.0,0.0,0.0,0
2014-05-15 04:59:00,0.251686993478,0,0.5,0.0,0.0,0.0,0
2014-05-15 05:04:00,0.380271501396,0,0.5,0.0,0.0,0.0,0
2014-05-15 05:09:00,0.38952877214,0,0.5,0.0,0.0,0.0,0
2014-05-15 05:14:00,0.239502209764,0,0.5,0.0,0.0,0.0,0
2014-05-15 05:19:00,0.221123305942,0,0.5,0.0,0.0,0.0,0
2014-05-15 05:24:00,0.225610652078,0,0.5,0.0,0.0,0.0,0
2014-05-15 05:29:00,0.242576663539,0,0.5,0.0,0.0,0.0,0
2014-05-15 05:34:00,0.211922550892,0,0.5,0.0,0.0,0.0,0
2014-05-15 05:39:00,0.216918538278,0,0.5,0.0,0.0,0.0,0
2014-05-15 05:44:00,0.2350939856,0,0.5,0.0,0.0,0.0,0
2014-05-15 05:49:00,0.221281549886,0,0.5,0.0,0.0,0.0,0
2014-05-15 05:54:00,0.211233059421,0,0.5,0.0,0.0,0.0,0
2014-05-15 05:59:00,0.25773417278,0,0.5,0.0,0.0,0.0,0
2014-05-15 06:04:00,0.38022628884,0,0.5,0.0,0.0,0.0,0
2014-05-15 06:09:00,0.382645160561,0,0.5,0.0,0.0,0.0,0
2014-05-15 06:14:00,0.240982920957,0,0.5,0.0,0.0,0.0,0
2014-05-15 06:19:00,0.233093330018,0,0.5,0.0,0.0,0.0,0
2014-05-15 06:24:00,0.215573464751,0,0.5,0.0,0.0,0.0,0
2014-05-15 06:29:00,0.223892574968,0,0.5,0.0,0.0,0.0,0
2014-05-15 06:34:00,0.222377954358,0,0.5,0.0,0.0,0.0,0
2014-05-15 06:39:00,0.218082761583,0,0.5,0.0,0.0,0.0,0
2014-05-15 06:44:00,0.231793469046,0,0.5,0.0,0.0,0.0,0
2014-05-15 06:49:00,0.230267545297,0,0.5,0.0,0.0,0.0,0
2014-05-15 06:54:00,0.230154513909,0,0.5,0.0,0.0,0.0,0
2014-05-15 06:59:00,0.24974285359,0,0.5,0.0,0.0,0.0,0
2014-05-15 07:04:00,0.390218263612,0,0.5,0.0,0.0,0.0,0
2014-05-15 07:09:00,0.392840591832,0,0.5,0.0,0.0,0.0,0
2014-05-15 07:14:00,0.233692396378,0,0.5,0.0,0.0,0.0,0
2014-05-15 07:19:00,0.219473047665,0,0.5,0.0,0.0,0.0,0
2014-05-15 07:24:00,0.23125091838,0,0.5,0.0,0.0,0.0,0
2014-05-15 07:29:00,0.224469035051,0,0.5,0.0,0.0,0.0,0
2014-05-15 07:34:00,0.229012896881,0,0.5,0.0,0.0,0.0,0
2014-05-15 07:39:00,0.209345435227,0,0.5,0.0,0.0,0.0,0
2014-05-15 07:44:00,0.233828034045,0,0.5,0.0,0.0,0.0,0
2014-05-15 07:49:00,0.219393925693,0,0.5,0.0,0.0,0.0,0
2014-05-15 07:54:00,0.221236337331,0,0.5,0.0,0.0,0.0,0
2014-05-15 07:59:00,0.267353143968,0,0.5,0.0,0.0,0.0,0
2014-05-15 08:04:00,0.378327361508,0,0.5,0.0,0.0,0.0,0
2014-05-15 08:09:00,0.390851239389,0,0.5,0.0,0.0,0.0,0
2014-05-15 08:14:00,0.232686417018,0,0.5,0.0,0.0,0.0,0
2014-05-15 08:19:00,0.220693786665,0,0.5,0.0,0.0,0.0,0
2014-05-15 08:24:00,0.220682483526,0,0.5,0.0,0.0,0.0,0
2014-05-15 08:29:00,0.239671756847,0,0.5,0.0,0.0,0.0,0
2014-05-15 08:34:00,0.222570107719,0,0.5,0.0,0.0,0.0,0
2014-05-15 08:39:00,0.21871573736,0,0.5,0.0,0.0,0.0,0
2014-05-15 08:44:00,0.238417108431,0,0.5,0.0,0.0,0.0,0
2014-05-15 08:49:00,0.218207096111,0,0.5,0.0,0.0,0.0,0
2014-05-15 08:54:00,0.214352725752,0,0.5,0.0,0.0,0.0,0
2014-05-15 08:59:00,0.249788066146,0,0.5,0.0,0.0,0.0,0
2014-05-15 09:04:00,0.386409105809,0,0.5,0.0,0.0,0.0,0
2014-05-15 09:09:00,0.385210973087,0,0.5,0.0,0.0,0.0,0
2014-05-15 09:14:00,0.233861943462,0,0.5,0.0,0.0,0.0,0
2014-05-15 09:19:00,0.221993647636,0,0.5,0.0,0.0,0.0,0
2014-05-15 09:24:00,0.219992992054,0,0.5,0.0,0.0,0.0,0
2014-05-15 09:29:00,0.2439895559,0,0.5,0.0,0.0,0.0,0
2014-05-15 09:34:00,0.215042217224,0,0.558793980326,0.0,0.0,0.0,0
2014-05-15 09:39:00,0.219518260221,0,0.561779449819,0.0,0.0,0.0,0
2014-05-15 09:44:00,0.248318658091,0,0.637425838467,0.0,0.0,0.0,0
2014-05-15 09:49:00,0.211244362559,0,0.551341859434,0.0,0.0,0.0,0
2014-05-15 09:54:00,0.22397169694,0,0.790681890551,0.0,0.0,0.0,0
2014-05-15 09:59:00,0.240112579263,0,0.950171990379,0.0,0.0,0.0,0
2014-05-15 10:04:00,0.382679069978,0,0.78445248708,0.0,0.0,0.0,0
2014-05-15 10:09:00,0.534095918437,0,0.844856825496,0.0,0.0,0.0,0
2014-05-15 10:14:00,0.229069412576,0,0.857019638477,0.0,0.0,0.0,0
2014-05-15 10:19:00,0.221914525664,0,0.826281720695,0.0,0.0,0.0,0
2014-05-15 10:24:00,0.232109956935,0,0.850391677156,0.0,0.0,0.0,0
2014-05-15 10:29:00,0.230052785659,0,0.864102100667,0.0,0.0,0.0,0
2014-05-15 10:34:00,0.225158526523,0,0.826677252681,0.0,0.0,0.0,0
2014-05-15 10:39:00,0.215776921251,0,0.833299169752,0.0,0.0,0.0,0
2014-05-15 10:44:00,0.231680437658,0,0.844181170672,0.0,0.0,0.0,0
2014-05-15 10:49:00,0.22386996869,0,0.820694243877,0.0,0.0,0.0,0
2014-05-15 10:54:00,0.216375987612,0,0.516809026541,0.0,0.0,0.0,0
2014-05-15 10:59:00,0.25399283381,0,0.95147613663,0.0,0.0,0.0,0
2014-05-15 11:04:00,0.385810039448,0,0.774691492652,0.0,0.0,0.0,0
2014-05-15 11:09:00,0.469916695866,0,0.750945517725,0.0,0.0,0.0,0
2014-05-15 11:14:00,0.23327418024,0,0.753072361519,0.0,0.0,0.0,0
2014-05-15 11:19:00,0.221914525664,0,0.738003738636,0.0,0.0,0.0,0
2014-05-15 11:24:00,0.230753580269,0,0.748413789423,0.0,0.0,0.0,0
2014-05-15 11:29:00,0.230018876242,0,0.773894262812,0.0,0.0,0.0,0
2014-05-15 11:34:00,0.229465022437,0,0.770029027529,0.0,0.0,0.0,0
2014-05-15 11:39:00,0.206338800285,0,0.738173720493,0.0,0.0,0.0,0
2014-05-15 11:44:00,0.245176385482,0,0.789303244823,0.0,0.0,0.0,0
2014-05-15 11:49:00,0.221993647636,0,0.732126413789,0.0,0.0,0.0,0
2014-05-15 11:54:00,0.221371974997,0,0.629351350553,0.0,0.0,0.0,0
2014-05-15 11:59:00,0.255597879531,0,0.941503169151,0.0,0.0,0.0,0
2014-05-15 12:04:00,0.377581354342,0,0.768632930317,0.0,0.0,0.0,0
2014-05-15 12:09:00,0.385900464559,0,0.584114280701,0.0,0.0,0.0,0
2014-05-15 12:14:00,0.233296786518,0,0.589832269919,0.0,0.0,0.0,0
2014-05-15 12:19:00,0.217540210917,0,0.561615844021,0.0,0.0,0.0,0
2014-05-15 12:24:00,0.224096031468,0,0.549369700107,0.0,0.0,0.0,0
2014-05-15 12:29:00,0.236518181099,0,0.617267271466,0.0,0.0,0.0,0
2014-05-15 12:34:00,0.221959738219,0,0.565240229335,0.0,0.0,0.0,0
2014-05-15 12:39:00,0.216975053972,0,0.553810150802,0.0,0.0,0.0,0
2014-05-15 12:44:00,0.235116591878,0,0.584979507112,0.0,0.0,0.0,0
2014-05-15 12:49:00,0.224502944468,0,0.51400820828,0.0,0.0,0.0,0
2014-05-15 12:54:00,0.225135920245,0,0.800953506744,0.0,0.0,0.0,0
2014-05-15 12:59:00,0.25389110556,0,0.945994274636,0.0,0.0,0.0,0
2014-05-15 13:04:00,0.38508663856,0,0.767557936583,0.0,0.0,0.0,0
2014-05-15 13:09:00,0.387166416114,0,0.598133407374,0.0,0.0,0.0,0
2014-05-15 13:14:00,0.240779464457,0,0.63489318252,0.0,0.0,0.0,0
2014-05-15 13:19:00,0.223892574968,0,0.607168496099,0.0,0.0,0.0,0
2014-05-15 13:24:00,0.228752924687,0,0.6221633745,0.0,0.0,0.0,0
2014-05-15 13:29:00,0.236665121904,0,0.664526731934,0.0,0.0,0.0,0
2014-05-15 13:34:00,0.220015598332,0,0.632191358355,0.0,0.0,0.0,0
2014-05-15 13:39:00,0.223338721163,0,0.629655521762,0.0,0.0,0.0,0
2014-05-15 13:44:00,0.232008228685,0,0.644539260514,0.0,0.0,0.0,0
2014-05-15 13:49:00,0.220072114026,0,0.569602749619,0.0,0.0,0.0,0
2014-05-15 13:54:00,0.217754970555,0,0.785451030545,0.0,0.0,0.0,0
2014-05-15 13:59:00,0.254614506448,0,0.940149801235,0.0,0.0,0.0,0
2014-05-15 14:04:00,0.375840670954,0,0.781198904928,0.0,0.0,0.0,0
2014-05-15 14:09:00,0.387132506697,0,0.566010678978,0.0,0.0,0.0,0
2014-05-15 14:14:00,0.242452329012,0,0.596896009842,0.0,0.0,0.0,0
2014-05-15 14:19:00,0.231872591019,0,0.586149451042,0.0,0.0,0.0,0
2014-05-15 14:24:00,0.208802884561,0,0.560766825236,0.0,0.0,0.0,0
2014-05-15 14:29:00,0.249482881396,0,0.619382153845,0.0,0.0,0.0,0
2014-05-15 14:34:00,0.21851228086,0,0.589375515846,0.0,0.0,0.0,0
2014-05-15 14:39:00,0.22194843508,0,0.593583129642,0.0,0.0,0.0,0
2014-05-15 14:44:00,0.227769551604,0,0.615847090697,0.0,0.0,0.0,0
2014-05-15 14:49:00,0.221405884414,0,0.540962867465,0.0,0.0,0.0,0
2014-05-15 14:54:00,0.214985701529,0,0.795554196104,0.0,0.0,0.0,0
2014-05-15 14:59:00,0.254026743227,0,0.944570002108,0.0,0.0,0.0,0
2014-05-15 15:04:00,0.379604616202,0,0.788863159934,0.0,0.0,0.0,0
2014-05-15 15:09:00,0.383605927366,0,0.52931908708,0.0,0.0,0.0,0
2014-05-15 15:14:00,0.235252229544,0,0.589502404164,0.0,0.0,0.0,0
2014-05-15 15:19:00,0.227396548021,0,0.539330994381,0.0,0.0,0.0,0
2014-05-15 15:24:00,0.228945078048,0,0.563158785587,0.0,0.0,0.0,0
2014-05-15 15:29:00,0.236845972126,0,0.596769689987,0.0,0.0,0.0,0
2014-05-15 15:34:00,0.218828768749,0,0.57666714261,0.0,0.0,0.0,0
2014-05-15 15:39:00,0.223598693357,0,0.58161812476,0.0,0.0,0.0,0
2014-05-15 15:44:00,0.230911824214,0,0.617142756967,0.0,0.0,0.0,0
2014-05-15 15:49:00,0.222490985747,0,0.546138714107,0.0,0.0,0.0,0
2014-05-15 15:54:00,0.228899865493,0,0.77463272645,0.0,0.0,0.0,0
2014-05-15 15:59:00,0.260209560195,0,0.928761235402,0.0,0.0,0.0,0
2014-05-15 16:04:00,0.387754179336,0,0.721112042279,0.0,0.0,0.0,0
2014-05-15 16:09:00,0.392874501249,0,0.644028690685,0.0,0.0,0.0,0
2014-05-15 16:14:00,0.235783477072,0,0.658631182549,0.0,0.0,0.0,0
2014-05-15 16:19:00,0.228809440382,0,0.641447601332,0.0,0.0,0.0,0
2014-05-15 16:24:00,0.234664466322,0,0.674998917508,0.0,0.0,0.0,0
2014-05-15 16:29:00,0.226831391077,0,0.681687679739,0.0,0.0,0.0,0
2014-05-15 16:34:00,0.221100699664,0,0.661213863317,0.0,0.0,0.0,0
2014-05-15 16:39:00,0.228300799132,0,0.673400142219,0.0,0.0,0.0,0
2014-05-15 16:44:00,0.248307354952,0,0.712727953209,0.0,0.0,0.0,0
2014-05-15 16:49:00,0.220094720304,0,0.62921178329,0.0,0.0,0.0,0
2014-05-15 16:54:00,0.215573464751,0,0.746760084187,0.0,0.0,0.0,0
2014-05-15 16:59:00,0.258988821196,0,0.924687256882,0.0,0.0,0.0,0
2014-05-15 17:04:00,0.385855252003,0,0.715958670231,0.0,0.0,0.0,0
2014-05-15 17:09:00,0.397768760385,0,0.657121171114,0.0,0.0,0.0,0
2014-05-15 17:14:00,0.224367306801,0,0.635015834918,0.0,0.0,0.0,0
2014-05-15 17:19:00,0.228696408993,0,0.639055546227,0.0,0.0,0.0,0
2014-05-15 17:24:00,0.212578132948,0,0.620475521184,0.0,0.0,0.0,0
2014-05-15 17:29:00,0.69295023228,0,0.998602417907,0.0,0.0,0.0,0
2014-05-15 17:34:00,0.533406426965,0,0.99999821916,0.0,0.0,0.0,1
2014-05-15 17:39:00,0.220207751693,0,0.999,0.0,0.0,0.0,0
2014-05-15 17:44:00,0.244622531677,0,0.999,0.0,0.0,0.0,0
2014-05-15 17:49:00,0.22194843508,0,0.999,0.0,0.0,0.0,0
2014-05-15 17:54:00,0.229012896881,0,0.999885389008,0.0,0.0,0.0,0
2014-05-15 17:59:00,0.256456918086,0,0.997938210691,0.0,0.0,0.0,0
2014-05-15 18:04:00,0.378304755231,0,0.999914127532,0.0,0.0,0.0,0
2014-05-15 18:09:00,0.459348261012,0,0.999999820021,0.0,0.0,0.0,1
2014-05-15 18:14:00,0.245775451843,0,0.999,0.0,0.0,0.0,0
2014-05-15 18:19:00,0.230007573103,0,0.995444211402,0.0,0.0,0.0,0
2014-05-15 18:24:00,0.223316114885,0,0.793182818282,0.0,0.0,0.0,0
2014-05-15 18:29:00,0.236359937155,0,0.818791782463,0.0,0.0,0.0,0
2014-05-15 18:34:00,0.219360016277,0,0.777839116285,0.0,0.0,0.0,0
2014-05-15 18:39:00,0.231375252908,0,0.793704325171,0.0,0.0,0.0,0
2014-05-15 18:44:00,0.239298753264,0,0.810225594562,0.0,0.0,0.0,0
2014-05-15 18:49:00,0.226447084355,0,0.759739364558,0.0,0.0,0.0,0
2014-05-15 18:54:00,0.219947779498,0,0.65883008273,0.0,0.0,0.0,0
2014-05-15 18:59:00,0.250477557618,0,0.93125292198,0.0,0.0,0.0,0
2014-05-15 19:04:00,0.385843948865,0,0.777470957498,0.0,0.0,0.0,0
2014-05-15 19:09:00,0.463168721954,0,0.669074163259,0.0,0.0,0.0,0
2014-05-15 19:14:00,0.242124537984,0,0.703413038964,0.0,0.0,0.0,0
2014-05-15 19:19:00,0.222298832386,0,0.67789193891,0.0,0.0,0.0,0
2014-05-15 19:24:00,0.221417187553,0,0.681682466251,0.0,0.0,0.0,0
2014-05-15 19:29:00,0.239581331736,0,0.696611368336,0.0,0.0,0.0,0
2014-05-15 19:34:00,0.220490330165,0,0.661951473223,0.0,0.0,0.0,0
2014-05-15 19:39:00,0.223135264663,0,0.655692527842,0.0,0.0,0.0,0
2014-05-15 19:44:00,0.235003560489,0,0.68377785527,0.0,0.0,0.0,0
2014-05-15 19:49:00,0.217449785806,0,0.621019616321,0.0,0.0,0.0,0
2014-05-15 19:54:00,0.226413174939,0,0.696054108122,0.0,0.0,0.0,0
2014-05-15 19:59:00,0.262153700083,0,0.939253214394,0.0,0.0,0.0,0
2014-05-15 20:04:00,0.385143154254,0,0.791555628204,0.0,0.0,0.0,0
2014-05-15 20:09:00,0.532942998271,0,0.784748258407,0.0,0.0,0.0,0
2014-05-15 20:14:00,0.242576663539,0,0.815227263912,0.0,0.0,0.0,0
2014-05-15 20:19:00,0.220614664692,0,0.788036173915,0.0,0.0,0.0,0
2014-05-15 20:24:00,0.219868657526,0,0.787107028887,0.0,0.0,0.0,0