timestamp,value,is_anomaly,anomaly_score
2013-12-02 21:15:00,0.675424439176,0,0.5
2013-12-02 21:20:00,0.684525237418,0,0.5
2013-12-02 21:25:00,0.695690571189,0,0.5
2013-12-02 21:30:00,0.714638468136,0,0.5
2013-12-02 21:35:00,0.725811775536,0,0.5
2013-12-02 21:40:00,0.719991595238,0,0.5
2013-12-02 21:45:00,0.734643734321,0,0.5
2013-12-02 21:50:00,0.734672333677,0,0.5
2013-12-02 21:55:00,0.735429638237,0,0.5
2013-12-02 22:00:00,0.727284044273,0,0.5
2013-12-02 22:05:00,0.73946862101,0,0.5
2013-12-02 22:10:00,0.727487335069,0,0.5
2013-12-02 22:15:00,0.725550533578,0,0.5
2013-12-02 22:20:00,0.739650412701,0,0.5
2013-12-02 22:25:00,0.735658573374,0,0.5
2013-12-02 22:30:00,0.736611801251,0,0.5
2013-12-02 22:35:00,0.745484863407,0,0.5
2013-12-02 22:40:00,0.745015194212,0,0.5
2013-12-02 22:45:00,0.747997241193,0,0.5
2013-12-02 22:50:00,0.7338118457,0,0.5
2013-12-02 22:55:00,0.74871357299,0,0.5
2013-12-02 23:00:00,0.743945954639,0,0.5
2013-12-02 23:05:00,0.734955240678,0,0.5
2013-12-02 23:10:00,0.742581714854,0,0.5
2013-12-02 23:15:00,0.748534391098,0,0.5
2013-12-02 23:20:00,0.750850546109,0,0.5
2013-12-02 23:25:00,0.743929718448,0,0.5
2013-12-02 23:30:00,0.761406548621,0,0.5
2013-12-02 23:35:00,0.743826064186,0,0.5
2013-12-02 23:40:00,0.757815603357,0,0.5
2013-12-02 23:45:00,0.748301527028,0,0.5
2013-12-02 23:50:00,0.746789014861,0,0.5
2013-12-02 23:55:00,0.745597373133,0,0.5
2013-12-03 00:00:00,0.750038228678,0,0.5
2013-12-03 00:05:00,0.755183550103,0,0.5
2013-12-03 00:10:00,0.760556604137,0,0.5
2013-12-03 00:15:00,0.763702210955,0,0.5
2013-12-03 00:20:00,0.749839590231,0,0.5
2013-12-03 00:25:00,0.759187661545,0,0.5
2013-12-03 00:30:00,0.765743980769,0,0.5
2013-12-03 00:35:00,0.767451832184,0,0.5
2013-12-03 00:40:00,0.753813281894,0,0.5
2013-12-03 00:45:00,0.760780105911,0,0.5
2013-12-03 00:50:00,0.762771796902,0,0.5
2013-12-03 00:55:00,0.770605146624,0,0.5
2013-12-03 01:00:00,0.765431925955,0,0.5
2013-12-03 01:05:00,0.764901483162,0,0.5
2013-12-03 01:10:00,0.76438800862,0,0.5
2013-12-03 01:15:00,0.780812813746,0,0.5
2013-12-03 01:20:00,0.782328028076,0,0.5
2013-12-03 01:25:00,0.776007544758,0,0.5
2013-12-03 01:30:00,0.781934676168,0,0.5
2013-12-03 01:35:00,0.772974907329,0,0.5
2013-12-03 01:40:00,0.77491647599,0,0.5
2013-12-03 01:45:00,0.767543197417,0,0.5
2013-12-03 01:50:00,0.781893136249,0,0.5
2013-12-03 01:55:00,0.782849720642,0,0.5
2013-12-03 02:00:00,0.780098101199,0,0.5
2013-12-03 02:05:00,0.778846094233,0,0.5
2013-12-03 02:10:00,0.783203921432,0,0.5
2013-12-03 02:15:00,0.777537985468,0,0.5
2013-12-03 02:20:00,0.778593350964,0,0.5
2013-12-03 02:25:00,0.790070459825,0,0.5
2013-12-03 02:30:00,0.792021110211,0,0.5
2013-12-03 02:35:00,0.791701168307,0,0.5
2013-12-03 02:40:00,0.794304063505,0,0.5
2013-12-03 02:45:00,0.791319138651,0,0.5
2013-12-03 02:50:00,0.793858248295,0,0.5
2013-12-03 02:55:00,0.793059730053,0,0.5
2013-12-03 03:00:00,0.802770084124,0,0.5
2013-12-03 03:05:00,0.797967651478,0,0.5
2013-12-03 03:10:00,0.797566700568,0,0.5
2013-12-03 03:15:00,0.813138568891,0,0.5
2013-12-03 03:20:00,0.812910876686,0,0.5
2013-12-03 03:25:00,0.820836615923,0,0.5
2013-12-03 03:30:00,0.807143699973,0,0.5
2013-12-03 03:35:00,0.82377440466,0,0.5
2013-12-03 03:40:00,0.814819661386,0,0.5
2013-12-03 03:45:00,0.823532646319,0,0.5
2013-12-03 03:50:00,0.828139042048,0,0.5
2013-12-03 03:55:00,0.820830065914,0,0.5
2013-12-03 04:00:00,0.830833945744,0,0.5
2013-12-03 04:05:00,0.834526172068,0,0.5
2013-12-03 04:10:00,0.821586496345,0,0.5
2013-12-03 04:15:00,0.833496200973,0,0.5
2013-12-03 04:20:00,0.840428185043,0,0.5
2013-12-03 04:25:00,0.828911836364,0,0.5
2013-12-03 04:30:00,0.841994161397,0,0.5
2013-12-03 04:35:00,0.831823667021,0,0.5
2013-12-03 04:40:00,0.83881328748,0,0.5
2013-12-03 04:45:00,0.83658789531,0,0.5
2013-12-03 04:50:00,0.847475340506,0,0.5
2013-12-03 04:55:00,0.844249463225,0,0.5
2013-12-03 05:00:00,0.837942254505,0,0.5
2013-12-03 05:05:00,0.835778836205,0,0.5
2013-12-03 05:10:00,0.8311616944,0,0.5
2013-12-03 05:15:00,0.819654495098,0,0.5
2013-12-03 05:20:00,0.812997370075,0,0.5
2013-12-03 05:25:00,0.807359410781,0,0.5
2013-12-03 05:30:00,0.807160440083,0,0.5
2013-12-03 05:35:00,0.803733905765,0,0.5
2013-12-03 05:40:00,0.791825975612,0,0.5
2013-12-03 05:45:00,0.795019309193,0,0.5
2013-12-03 05:50:00,0.776079675749,0,0.5
2013-12-03 05:55:00,0.770396911915,0,0.5
2013-12-03 06:00:00,0.773047741533,0,0.5
2013-12-03 06:05:00,0.775147641507,0,0.5
2013-12-03 06:10:00,0.757367576184,0,0.5
2013-12-03 06:15:00,0.757437527347,0,0.5
2013-12-03 06:20:00,0.767486746737,0,0.5
2013-12-03 06:25:00,0.760199479245,0,0.5
2013-12-03 06:30:00,0.753066205866,0,0.5
2013-12-03 06:35:00,0.768627506265,0,0.5
2013-12-03 06:40:00,0.749957730357,0,0.5
2013-12-03 06:45:00,0.746339583518,0,0.5
2013-12-03 06:50:00,0.758022075618,0,0.5
2013-12-03 06:55:00,0.754509468391,0,0.5
2013-12-03 07:00:00,0.76227362203,0,0.5
2013-12-03 07:05:00,0.758858376514,0,0.5
2013-12-03 07:10:00,0.739945367154,0,0.5
2013-12-03 07:15:00,0.737541161988,0,0.5
2013-12-03 07:20:00,0.754510440618,0,0.5
2013-12-03 07:25:00,0.752226645329,0,0.5
2013-12-03 07:30:00,0.746298040122,0,0.5
2013-12-03 07:35:00,0.735119161705,0,0.5
2013-12-03 07:40:00,0.745053487268,0,0.5
2013-12-03 07:45:00,0.75633929434,0,0.5
2013-12-03 07:50:00,0.766602486897,0,0.5
2013-12-03 07:55:00,0.753903579341,0,0.5
2013-12-03 08:00:00,0.769762792027,0,0.5
2013-12-03 08:05:00,0.771115597651,0,0.5
2013-12-03 08:10:00,0.783087681878,0,0.5
2013-12-03 08:15:00,0.793639687051,0,0.5
2013-12-03 08:20:00,0.80069778046,0,0.5
2013-12-03 08:25:00,0.78925212844,0,0.5
2013-12-03 08:30:00,0.787398800675,0,0.5
2013-12-03 08:35:00,0.784356298629,0,0.5
2013-12-03 08:40:00,0.780358005605,0,0.5
2013-12-03 08:45:00,0.79422669356,0,0.5
2013-12-03 08:50:00,0.789966745991,0,0.5
2013-12-03 08:55:00,0.781262324863,0,0.5
2013-12-03 09:00:00,0.787865549433,0,0.5
2013-12-03 09:05:00,0.780176216828,0,0.5
2013-12-03 09:10:00,0.787205901812,0,0.5
2013-12-03 09:15:00,0.764865534931,0,0.5
2013-12-03 09:20:00,0.783688225797,0,0.5
2013-12-03 09:25:00,0.761621910641,0,0.5
2013-12-03 09:30:00,0.763601533132,0,0.5
2013-12-03 09:35:00,0.76685622748,0,0.5
2013-12-03 09:40:00,0.76784848113,0,0.5
2013-12-03 09:45:00,0.765083045021,0,0.5
2013-12-03 09:50:00,0.764884224287,0,0.5
2013-12-03 09:55:00,0.770430849073,0,0.5
2013-12-03 10:00:00,0.753393075037,0,0.5
2013-12-03 10:05:00,0.758750385523,0,0.5
2013-12-03 10:10:00,0.751280272273,0,0.5
2013-12-03 10:15:00,0.746283436054,0,0.5
2013-12-03 10:20:00,0.754323328696,0,0.5
2013-12-03 10:25:00,0.737603955302,0,0.5
2013-12-03 10:30:00,0.741484970584,0,0.5
2013-12-03 10:35:00,0.743076381084,0,0.5
2013-12-03 10:40:00,0.735074967825,0,0.5
2013-12-03 10:45:00,0.728970982531,0,0.5
2013-12-03 10:50:00,0.730995234322,0,0.5
2013-12-03 10:55:00,0.714191533836,0,0.5
2013-12-03 11:00:00,0.710727626821,0,0.5
2013-12-03 11:05:00,0.717173055663,0,0.5
2013-12-03 11:10:00,0.705467267901,0,0.5
2013-12-03 11:15:00,0.688433035673,0,0.5
2013-12-03 11:20:00,0.696237166453,0,0.5
2013-12-03 11:25:00,0.681080200259,0,0.5
2013-12-03 11:30:00,0.67108722098,0,0.5
2013-12-03 11:35:00,0.681088698761,0,0.5
2013-12-03 11:40:00,0.663398123656,0,0.5
2013-12-03 11:45:00,0.67127335297,0,0.5
2013-12-03 11:50:00,0.664711710602,0,0.5
2013-12-03 11:55:00,0.664223935275,0,0.5
2013-12-03 12:00:00,0.674142914186,0,0.5
2013-12-03 12:05:00,0.667636360798,0,0.5
2013-12-03 12:10:00,0.688345146946,0,0.5
2013-12-03 12:15:00,0.683370439191,0,0.5
2013-12-03 12:20:00,0.697730097093,0,0.5
2013-12-03 12:25:00,0.68843536866,0,0.5
2013-12-03 12:30:00,0.696058923713,0,0.5
2013-12-03 12:35:00,0.704092704023,0,0.5
2013-12-03 12:40:00,0.719099743819,0,0.5
2013-12-03 12:45:00,0.708848327446,0,0.5
2013-12-03 12:50:00,0.725195820507,0,0.5
2013-12-03 12:55:00,0.707611052243,0,0.5
2013-12-03 13:00:00,0.715388195117,0,0.5
2013-12-03 13:05:00,0.716643743987,0,0.5
2013-12-03 13:10:00,0.733209978981,0,0.5
2013-12-03 13:15:00,0.736739263457,0,0.5
2013-12-03 13:20:00,0.72090574867,0,0.5
2013-12-03 13:25:00,0.736281550759,0,0.5
2013-12-03 13:30:00,0.729307429921,0,0.5
2013-12-03 13:35:00,0.73376079324,0,0.5
2013-12-03 13:40:00,0.732193421454,0,0.5
2013-12-03 13:45:00,0.729775970819,0,0.5
2013-12-03 13:50:00,0.746616121388,0,0.5
2013-12-03 13:55:00,0.744337615228,0,0.5
2013-12-03 14:00:00,0.743383097814,0,0.5
2013-12-03 14:05:00,0.747981250431,0,0.5
2013-12-03 14:10:00,0.740099547218,0,0.5
2013-12-03 14:15:00,0.734259312764,0,0.5
2013-12-03 14:20:00,0.737214726078,0,0.5
2013-12-03 14:25:00,0.757448043592,0,0.5
2013-12-03 14:30:00,0.759140933788,0,0.5
2013-12-03 14:35:00,0.745197158417,0,0.5
2013-12-03 14:40:00,0.74239919289,0,0.5
2013-12-03 14:45:00,0.751084773195,0,0.5
2013-12-03 14:50:00,0.744577291555,0,0.5
2013-12-03 14:55:00,0.753827965548,0,0.5
2013-12-03 15:00:00,0.763350888602,0,0.5
2013-12-03 15:05:00,0.762270803165,0,0.5
2013-12-03 15:10:00,0.753264078053,0,0.5
2013-12-03 15:15:00,0.761362913064,0,0.5
2013-12-03 15:20:00,0.775493213093,0,0.5
2013-12-03 15:25:00,0.773191210286,0,0.5
2013-12-03 15:30:00,0.777165578195,0,0.5
2013-12-03 15:35:00,0.766267791149,0,0.5
2013-12-03 15:40:00,0.756782226885,0,0.5
2013-12-03 15:45:00,0.762702232205,0,0.5
2013-12-03 15:50:00,0.773350320827,0,0.5
2013-12-03 15:55:00,0.762002608478,0,0.5
2013-12-03 16:00:00,0.764824953614,0,0.5
2013-12-03 16:05:00,0.757304128893,0,0.5
2013-12-03 16:10:00,0.760109315506,0,0.5
2013-12-03 16:15:00,0.770960900889,0,0.5
2013-12-03 16:20:00,0.765403544121,0,0.5
2013-12-03 16:25:00,0.75624413858,0,0.5
2013-12-03 16:30:00,0.764534832481,0,0.5
2013-12-03 16:35:00,0.764539219292,0,0.5
2013-12-03 16:40:00,0.759173555006,0,0.5
2013-12-03 16:45:00,0.756281850198,0,0.5
2013-12-03 16:50:00,0.76831936037,0,0.5
2013-12-03 16:55:00,0.755077314325,0,0.5
2013-12-03 17:00:00,0.751996072432,0,0.5
2013-12-03 17:05:00,0.755825745192,0,0.5
2013-12-03 17:10:00,0.762451223478,0,0.5
2013-12-03 17:15:00,0.765528114923,0,0.5
2013-12-03 17:20:00,0.757454233161,0,0.5
2013-12-03 17:25:00,0.75315936324,0,0.5
2013-12-03 17:30:00,0.752619149604,0,0.5
2013-12-03 17:35:00,0.750057978209,0,0.5
2013-12-03 17:40:00,0.750170260922,0,0.5
2013-12-03 17:45:00,0.761101960885,0,0.5
2013-12-03 17:50:00,0.750376577206,0,0.5
2013-12-03 17:55:00,0.763481062462,0,0.5
2013-12-03 18:00:00,0.757842154526,0,0.5
2013-12-03 18:05:00,0.746418924695,0,0.5
2013-12-03 18:10:00,0.745516239533,0,0.5
2013-12-03 18:15:00,0.764501693343,0,0.5
2013-12-03 18:20:00,0.761964474687,0,0.5
2013-12-03 18:25:00,0.745260807913,0,0.5
2013-12-03 18:30:00,0.746139954333,0,0.5
2013-12-03 18:35:00,0.745474660244,0,0.5
2013-12-03 18:40:00,0.732261003362,0,0.5
2013-12-03 18:45:00,0.74323605117,0,0.5
2013-12-03 18:50:00,0.72156116508,0,0.5
2013-12-03 18:55:00,0.725801120415,0,0.5
2013-12-03 19:00:00,0.718315998214,0,0.5
2013-12-03 19:05:00,0.706835894309,0,0.5
2013-12-03 19:10:00,0.718967954656,0,0.5
2013-12-03 19:15:00,0.737683860628,0,0.5
2013-12-03 19:20:00,0.735317709856,0,0.5
2013-12-03 19:25:00,0.756726378221,0,0.5
2013-12-03 19:30:00,0.751121532883,0,0.5
2013-12-03 19:35:00,0.773072686325,0,0.5
2013-12-03 19:40:00,0.785401516494,0,0.5
2013-12-03 19:45:00,0.784442521877,0,0.5
2013-12-03 19:50:00,0.791674849882,0,0.5
2013-12-03 19:55:00,0.786833309809,0,0.5
2013-12-03 20:00:00,0.785433694399,0,0.5
2013-12-03 20:05:00,0.79539768748,0,0.5
2013-12-03 20:10:00,0.795163020276,0,0.5
2013-12-03 20:15:00,0.77431967994,0,0.5
2013-12-03 20:20:00,0.775116697607,0,0.5
2013-12-03 20:25:00,0.789597598453,0,0.5
2013-12-03 20:30:00,0.786735716295,0,0.5
2013-12-03 20:35:00,0.769815658427,0,0.5
2013-12-03 20:40:00,0.787181360024,0,0.5
2013-12-03 20:45:00,0.77564882702,0,0.5
2013-12-03 20:50:00,0.775523532333,0,0.5
2013-12-03 20:55:00,0.772593941418,0,0.5
2013-12-03 21:00:00,0.764334153927,0,0.5
2013-12-03 21:05:00,0.774902305369,0,0.5
2013-12-03 21:10:00,0.764555648012,0,0.5
2013-12-03 21:15:00,0.77282009396,0,0.5
2013-12-03 21:20:00,0.766168190508,0,0.5
2013-12-03 21:25:00,0.768004654602,0,0.5
2013-12-03 21:30:00,0.758617210135,0,0.5
2013-12-03 21:35:00,0.755461637315,0,0.5
2013-12-03 21:40:00,0.75481335188,0,0.5
2013-12-03 21:45:00,0.758966166427,0,0.5
2013-12-03 21:50:00,0.74361274509,0,0.5
2013-12-03 21:55:00,0.744791987572,0,0.5
2013-12-03 22:00:00,0.735614564599,0,0.5
2013-12-03 22:05:00,0.727977554071,0,0.5
2013-12-03 22:10:00,0.73187130489,0,0.5
2013-12-03 22:15:00,0.729123771015,0,0.5
2013-12-03 22:20:00,0.715734632095,0,0.5
2013-12-03 22:25:00,0.714807263168,0,0.5
2013-12-03 22:30:00,0.699224857929,0,0.5
2013-12-03 22:35:00,0.6971847815,0,0.5
2013-12-03 22:40:00,0.700034659429,0,0.5
2013-12-03 22:45:00,0.687999889475,0,0.5
2013-12-03 22:50:00,0.682738371532,0,0.5
2013-12-03 22:55:00,0.677481947558,0,0.5
2013-12-03 23:00:00,0.682998968815,0,0.5
2013-12-03 23:05:00,0.665317585183,0,0.5
2013-12-03 23:10:00,0.665624257187,0,0.5
2013-12-03 23:15:00,0.650967202286,0,0.5
2013-12-03 23:20:00,0.643832960251,0,0.5
2013-12-03 23:25:00,0.638899334162,0,0.5
2013-12-03 23:30:00,0.645705974497,0,0.5
2013-12-03 23:35:00,0.632613237705,0,0.5
2013-12-03 23:40:00,0.621582980175,0,0.5
2013-12-03 23:45:00,0.626970187917,0,0.5
2013-12-03 23:50:00,0.618897997098,0,0.5
2013-12-03 23:55:00,0.599683180248,0,0.5
2013-12-04 00:00:00,0.602484707223,0,0.5
2013-12-04 00:05:00,0.601448749047,0,0.5
2013-12-04 00:10:00,0.590462244245,0,0.5
2013-12-04 00:15:00,0.59972119574,0,0.5
2013-12-04 00:20:00,0.591883954951,0,0.5
2013-12-04 00:25:00,0.58587114067,0,0.5
2013-12-04 00:30:00,0.583887827628,0,0.5
2013-12-04 00:35:00,0.58809310416,0,0.5
2013-12-04 00:40:00,0.571183478065,0,0.5
2013-12-04 00:45:00,0.582486827403,0,0.5
2013-12-04 00:50:00,0.584046323562,0,0.5
2013-12-04 00:55:00,0.578162760902,0,0.5
2013-12-04 01:00:00,0.566333135899,0,0.5
2013-12-04 01:05:00,0.562424799334,0,0.5
2013-12-04 01:10:00,0.56485265797,0,0.5
2013-12-04 01:15:00,0.562163161984,0,0.5
2013-12-04 01:20:00,0.562279625261,0,0.5
2013-12-04 01:25:00,0.567533848077,0,0.5
2013-12-04 01:30:00,0.56237210949,0,0.5
2013-12-04 01:35:00,0.559524915872,0,0.5
2013-12-04 01:40:00,0.547672163212,0,0.5
2013-12-04 01:45:00,0.543812278986,0,0.5
2013-12-04 01:50:00,0.554888822276,0,0.5
2013-12-04 01:55:00,0.549163663185,0,0.5
2013-12-04 02:00:00,0.540777854397,0,0.5
2013-12-04 02:05:00,0.544247053079,0,0.5
2013-12-04 02:10:00,0.545359474559,0,0.5
2013-12-04 02:15:00,0.541559560272,0,0.5
2013-12-04 02:20:00,0.548288478774,0,0.5
2013-12-04 02:25:00,0.571182520027,0,0.5
2013-12-04 02:30:00,0.605253356086,0,0.5
2013-12-04 02:35:00,0.63638118522,0,0.5
2013-12-04 02:40:00,0.665674779888,0,0.5
2013-12-04 02:45:00,0.689699154628,0,0.5
2013-12-04 02:50:00,0.709226053729,0,0.5
2013-12-04 02:55:00,0.71601546817,0,0.5
2013-12-04 03:00:00,0.709624261038,0,0.5
2013-12-04 03:05:00,0.725052824759,0,0.5
2013-12-04 03:10:00,0.727353366924,0,0.5
2013-12-04 03:15:00,0.735838281078,0,0.5
2013-12-04 03:20:00,0.741752939105,0,0.5
2013-12-04 03:25:00,0.732398127602,0,0.5
2013-12-04 03:30:00,0.750552529524,0,0.5
2013-12-04 03:35:00,0.758427665063,0,0.5
2013-12-04 03:40:00,0.75688698229,0,0.5
2013-12-04 03:45:00,0.756018111572,0,0.5
2013-12-04 03:50:00,0.768924733099,0,0.5
2013-12-04 03:55:00,0.77169853231,0,0.5
2013-12-04 04:00:00,0.765441468752,0,0.5
2013-12-04 04:05:00,0.76918547142,0,0.5
2013-12-04 04:10:00,0.783859908475,0,0.5
2013-12-04 04:15:00,0.776770260693,0,0.5
2013-12-04 04:20:00,0.801543675645,0,0.5
2013-12-04 04:25:00,0.784844206913,0,0.5
2013-12-04 04:30:00,0.79830952058,0,0.5
2013-12-04 04:35:00,0.803541836024,0,0.5
2013-12-04 04:40:00,0.800822637472,0,0.5
2013-12-04 04:45:00,0.8036880496,0,0.5
2013-12-04 04:50:00,0.806511770625,0,0.5
2013-12-04 04:55:00,0.801065311661,0,0.5
2013-12-04 05:00:00,0.797883482243,0,0.5
2013-12-04 05:05:00,0.797722884282,0,0.5
2013-12-04 05:10:00,0.808507799754,0,0.5
2013-12-04 05:15:00,0.815731998623,0,0.5
2013-12-04 05:20:00,0.814420525168,0,0.5
2013-12-04 05:25:00,0.806512128339,0,0.5
2013-12-04 05:30:00,0.803676527021,0,0.5
2013-12-04 05:35:00,0.810156376363,0,0.930261548791
2013-12-04 05:40:00,0.816044317002,0,0.931744489491
2013-12-04 05:45:00,0.810058060279,0,0.933121034865
2013-12-04 05:50:00,0.799047453901,0,0.933297626218
2013-12-04 05:55:00,0.817215264034,0,0.936201573452
2013-12-04 06:00:00,0.797734441533,0,0.934608974393
2013-12-04 06:05:00,0.808837644048,0,0.933573728134
2013-12-04 06:10:00,0.79858098205,0,0.931147249888
2013-12-04 06:15:00,0.809667620822,0,0.931636016525
2013-12-04 06:20:00,0.798477031431,0,0.930829211331
2013-12-04 06:25:00,0.814276818878,0,0.931469179863
2013-12-04 06:30:00,0.812081583581,0,0.930853790452
2013-12-04 06:35:00,0.810770024902,0,0.895754448062
2013-12-04 06:40:00,0.807323480027,0,0.897412269081
2013-12-04 06:45:00,0.813063239522,0,0.896582963226
2013-12-04 06:50:00,0.824729830406,0,0.901888534369
2013-12-04 06:55:00,0.817719347058,0,0.903589747271
2013-12-04 07:00:00,0.814187313907,0,0.906526325707
2013-12-04 07:05:00,0.830209813658,0,0.910290249558
2013-12-04 07:10:00,0.834288904461,0,0.916580691235
2013-12-04 07:15:00,0.815143000586,0,0.916728622791
2013-12-04 07:20:00,0.833056300775,0,0.920250868771
2013-12-04 07:25:00,0.834759217203,0,0.924139840467
2013-12-04 07:30:00,0.824269361233,0,0.926798751244
2013-12-04 07:35:00,0.824888019365,0,0.928611479026
2013-12-04 07:40:00,0.844381704816,0,0.931547615206
2013-12-04 07:45:00,0.835771303729,0,0.934161792707
2013-12-04 07:50:00,0.837973387363,0,0.937487391345
2013-12-04 07:55:00,0.82593267637,0,0.936899248816
2013-12-04 08:00:00,0.833388916859,0,0.936774945852
2013-12-04 08:05:00,0.843431927699,0,0.940591825437
2013-12-04 08:10:00,0.830068878594,0,0.940197484284
2013-12-04 08:15:00,0.839063852705,0,0.940765049376
2013-12-04 08:20:00,0.826724444183,0,0.94108685479
2013-12-04 08:25:00,0.825865546233,0,0.941214603814
2013-12-04 08:30:00,0.828980724533,0,0.939176488707
2013-12-04 08:35:00,0.832876489995,0,0.938787301277
2013-12-04 08:40:00,0.827438846842,0,0.937354561422
2013-12-04 08:45:00,0.841132819303,0,0.939413603341
2013-12-04 08:50:00,0.825633117677,0,0.938369701437
2013-12-04 08:55:00,0.837692126579,0,0.937588142402
2013-12-04 09:00:00,0.834410252455,0,0.938179992583
2013-12-04 09:05:00,0.836531051399,0,0.937835235923
2013-12-04 09:10:00,0.842160597697,0,0.939913237375
2013-12-04 09:15:00,0.836588952479,0,0.941324511392
2013-12-04 09:20:00,0.836452470563,0,0.942292368234
2013-12-04 09:25:00,0.841869103307,0,0.943440534728
2013-12-04 09:30:00,0.830909496112,0,0.943878819199
2013-12-04 09:35:00,0.823411820754,0,0.941612623701
2013-12-04 09:40:00,0.841593781213,0,0.94365685446
2013-12-04 09:45:00,0.835617071985,0,0.943394317992
2013-12-04 09:50:00,0.839920452999,0,0.944089359334
2013-12-04 09:55:00,0.835834473455,0,0.944001868473
2013-12-04 10:00:00,0.822863710915,0,0.94153495967
2013-12-04 10:05:00,0.836074995723,0,0.941468107224
2013-12-04 10:10:00,0.826618130322,0,0.940177318336
2013-12-04 10:15:00,0.828269863119,0,0.938355764284
2013-12-04 10:20:00,0.825927431214,0,0.937677703393
2013-12-04 10:25:00,0.843094430939,0,0.940322967571
2013-12-04 10:30:00,0.841081879879,0,0.940255302457
2013-12-04 10:35:00,0.831473945971,0,0.939705433694
2013-12-04 10:40:00,0.828447953358,0,0.938162142863
2013-12-04 10:45:00,0.824086917164,0,0.936550075362
2013-12-04 10:50:00,0.840146347238,0,0.938910533171
2013-12-04 10:55:00,0.827532870359,0,0.937752575078
2013-12-04 11:00:00,0.840550681067,0,0.939632542481
2013-12-04 11:05:00,0.829344252382,0,0.939775647916
2013-12-04 11:10:00,0.835789010897,0,0.941076805954
2013-12-04 11:15:00,0.827072047513,0,0.938951432063
2013-12-04 11:20:00,0.836873641848,0,0.938383388061
2013-12-04 11:25:00,0.834059868691,0,0.938732932524
2013-12-04 11:30:00,0.828305618446,0,0.938713733203
2013-12-04 11:35:00,0.831467100264,0,0.939703052691
2013-12-04 11:40:00,0.839675078525,0,0.939640254659
2013-12-04 11:45:00,0.823736559239,0,0.939132515761
2013-12-04 11:50:00,0.831049774475,0,0.93784717561
2013-12-04 11:55:00,0.831762886846,0,0.938176375063
2013-12-04 12:00:00,0.815285761899,0,0.935342174157
2013-12-04 12:05:00,0.826358765258,0,0.935241789176
2013-12-04 12:10:00,0.820302010043,0,0.932875325049
2013-12-04 12:15:00,0.822911582474,0,0.931246070435
2013-12-04 12:20:00,0.807805287724,0,0.928170696834
2013-12-04 12:25:00,0.804575679581,0,0.923977947798
2013-12-04 12:30:00,0.794361723572,0,0.916495152818
2013-12-04 12:35:00,0.796927834183,0,0.911814804944
2013-12-04 12:40:00,0.789432100459,0,0.90416582587
2013-12-04 12:45:00,0.791510425781,0,0.896313941693
2013-12-04 12:50:00,0.799579368235,0,0.893126846937
2013-12-04 12:55:00,0.784556184612,0,0.884301519706
2013-12-04 13:00:00,0.772702139127,0,0.8736361287
2013-12-04 13:05:00,0.782364114713,0,0.864025491367
2013-12-04 13:10:00,0.781263526451,0,0.85747005958
2013-12-04 13:15:00,0.765969855464,0,0.847559076413
2013-12-04 13:20:00,0.771071910321,0,0.841363937755
2013-12-04 13:25:00,0.773095492726,0,0.834855935913
2013-12-04 13:30:00,0.755113477729,0,0.825185180528
2013-12-04 13:35:00,0.749604950839,0,0.812899430584
2013-12-04 13:40:00,0.752765133161,0,0.798559656523
2013-12-04 13:45:00,0.739979656952,0,0.784311062963
2013-12-04 13:50:00,0.756198786522,0,0.778891173415
2013-12-04 13:55:00,0.737728480345,0,0.763848322029
2013-12-04 14:00:00,0.740495208434,0,0.749630243847
2013-12-04 14:05:00,0.752180007963,0,0.744720274942
2013-12-04 14:10:00,0.749183090248,0,0.736824472966
2013-12-04 14:15:00,0.736699287257,0,0.723424847474
2013-12-04 14:20:00,0.743992142396,0,0.719264716457
2013-12-04 14:25:00,0.754860783133,0,0.721234521406
2013-12-04 14:30:00,0.753065199626,0,0.72134677837
2013-12-04 14:35:00,0.740577999432,0,0.72157055675
2013-12-04 14:40:00,0.738032084297,0,0.714737520291
2013-12-04 14:45:00,0.752883383505,0,0.720443264496
2013-12-04 14:50:00,0.739784209178,0,0.720176820233
2013-12-04 14:55:00,0.756110873835,0,0.515209263619
2013-12-04 15:00:00,0.755045997301,0,0.512628725729
2013-12-04 15:05:00,0.752357582443,0,0.505734484842
2013-12-04 15:10:00,0.756257100378,0,0.50033300674
2013-12-04 15:15:00,0.757039556541,0,0.500626558179
2013-12-04 15:20:00,0.761896352121,0,0.504515836962
2013-12-04 15:25:00,0.768748433309,0,0.516917550836
2013-12-04 15:30:00,0.763500341242,0,0.528115919952
2013-12-04 15:35:00,0.7822173508,0,0.5409859967
2013-12-04 15:40:00,0.787875842424,0,0.561987106277
2013-12-04 15:45:00,0.785785681815,0,0.574863027986
2013-12-04 15:50:00,0.801515572503,0,0.594861749611
2013-12-04 15:55:00,0.802945472293,0,0.616352969571
2013-12-04 16:00:00,0.820349261921,0,0.643067872082
2013-12-04 16:05:00,0.829812679116,0,0.672565966175
2013-12-04 16:10:00,0.825987481866,0,0.697688380374
2013-12-04 16:15:00,0.851241643213,0,0.728682288367
2013-12-04 16:20:00,0.846523145743,0,0.758188145744
2013-12-04 16:25:00,0.854443006237,0,0.782369384863
2013-12-04 16:30:00,0.867108412055,0,0.807217877824
2013-12-04 16:35:00,0.845863645736,0,0.824851454607
2013-12-04 16:40:00,0.861098410718,0,0.841293953395
2013-12-04 16:45:00,0.844950746136,0,0.852256912085
2013-12-04 16:50:00,0.842797111364,0,0.85790260951
2013-12-04 16:55:00,0.853133083909,0,0.863611175974
2013-12-04 17:00:00,0.840124681819,0,0.866994381812
2013-12-04 17:05:00,0.846447250064,0,0.865853558621
2013-12-04 17:10:00,0.844475849168,0,0.86536436341
2013-12-04 17:15:00,0.842858052214,0,0.862573118317
2013-12-04 17:20:00,0.833627533856,0,0.854285399647
2013-12-04 17:25:00,0.826503554744,0,0.849342798174
2013-12-04 17:30:00,0.818972634447,0,0.838206558484
2013-12-04 17:35:00,0.816444447998,0,0.83037393735
2013-12-04 17:40:00,0.817264693486,0,0.82315542194
2013-12-04 17:45:00,0.824514377148,0,0.814837152902
2013-12-04 17:50:00,0.814398114911,0,0.807155652602
2013-12-04 17:55:00,0.816083571197,0,0.79784322404
2013-12-04 18:00:00,0.825081755525,0,0.791756769651
2013-12-04 18:05:00,0.823810423174,0,0.78567508028
2013-12-04 18:10:00,0.824652253086,0,0.782773936294
2013-12-04 18:15:00,0.817541876594,0,0.77985468598
2013-12-04 18:20:00,0.819320285792,0,0.779968350639
2013-12-04 18:25:00,0.816451589028,0,0.779970685047
2013-12-04 18:30:00,0.810276939961,0,0.77767959683
2013-12-04 18:35:00,0.79691984505,0,0.768500287846
2013-12-04 18:40:00,0.792859850271,0,0.761191185796
2013-12-04 18:45:00,0.806632784208,0,0.757944610951
2013-12-04 18:50:00,0.789867674451,0,0.745639775466
2013-12-04 18:55:00,0.790375535506,0,0.733660165867
2013-12-04 19:00:00,0.776161397646,0,0.715793005005
2013-12-04 19:05:00,0.774884612107,0,0.699616220559
2013-12-04 19:10:00,0.779406622581,0,0.684113934537
2013-12-04 19:15:00,0.771250267413,0,0.666159807529
2013-12-04 19:20:00,0.764166091517,0,0.647444145812
2013-12-04 19:25:00,0.764848001311,0,0.634209550338
2013-12-04 19:30:00,0.770019503224,0,0.624684925152
2013-12-04 19:35:00,0.769946331978,0,0.609228300705
2013-12-04 19:40:00,0.766661952259,0,0.599359715649
2013-12-04 19:45:00,0.753850518628,0,0.583699971027
2013-12-04 19:50:00,0.74206960032,0,0.568962030732
2013-12-04 19:55:00,0.749065871421,0,0.557735121554
2013-12-04 20:00:00,0.756011782657,0,0.547521754449
2013-12-04 20:05:00,0.749696928142,0,0.538084249237
2013-12-04 20:10:00,0.741477766787,0,0.528126651184
2013-12-04 20:15:00,0.73129257391,0,0.513369165222
2013-12-04 20:20:00,0.744556837215,0,0.502157509474
2013-12-04 20:25:00,0.731554579217,0,0.514747436219
2013-12-04 20:30:00,0.726864079275,0,0.532243206653
2013-12-04 20:35:00,0.727711323568,0,0.543702714769
2013-12-04 20:40:00,0.728229188774,0,0.549756319619
2013-12-04 20:45:00,0.725247035334,0,0.56014651595
2013-12-04 20:50:00,0.741738950113,0,0.566353253618
2013-12-04 20:55:00,0.737773417184,0,0.571525907781
2013-12-04 21:00:00,0.736304114926,0,0.573766577205
2013-12-04 21:05:00,0.742200296986,0,0.569039831331
2013-12-04 21:10:00,0.733352826739,0,0.57389482569
2013-12-04 21:15:00,0.744644564327,0,0.568221540797
2013-12-04 21:20:00,0.727526516068,0,0.567934051697
2013-12-04 21:25:00,0.736809968949,0,0.563981779348
2013-12-04 21:30:00,0.731916062919,0,0.562378429926
2013-12-04 21:35:00,0.730512858624,0,0.560086655556
2013-12-04 21:40:00,0.722352641047,0,0.568513373025
2013-12-04 21:45:00,0.720292968716,0,0.576085131704
2013-12-04 21:50:00,0.706407024517,0,0.588968888087
2013-12-04 21:55:00,0.712077877238,0,0.601853365173
2013-12-04 22:00:00,0.701694897869,0,0.615275710433
2013-12-04 22:05:00,0.71779156712,0,0.626554233748
2013-12-04 22:10:00,0.701790688626,0,0.637262872281
2013-12-04 22:15:00,0.708033646209,0,0.649110430213
2013-12-04 22:20:00,0.707305656245,0,0.659129583224
2013-12-04 22:25:00,0.695642939046,0,0.673133994041
2013-12-04 22:30:00,0.699865755025,0,0.682039024875
2013-12-04 22:35:00,0.699087939277,0,0.690341191968
2013-12-04 22:40:00,0.698869018627,0,0.693269511501
2013-12-04 22:45:00,0.707218695395,0,0.695150675612
2013-12-04 22:50:00,0.704317414339,0,0.694136041595
2013-12-04 22:55:00,0.697219244941,0,0.702054780861
2013-12-04 23:00:00,0.709423280865,0,0.699127733085
2013-12-04 23:05:00,0.718202944823,0,0.695207858293
2013-12-04 23:10:00,0.728868096691,0,0.686822267072
2013-12-04 23:15:00,0.733117707013,0,0.725751140385
2013-12-04 23:20:00,0.731920068338,0,0.712208749671
2013-12-04 23:25:00,0.751832519924,0,0.689262245882
2013-12-04 23:30:00,0.741761629759,0,0.670037260556
2013-12-04 23:35:00,0.754367608082,0,0.648375646633
2013-12-04 23:40:00,0.754959278778,0,0.624562104089
2013-12-04 23:45:00,0.762892900313,0,0.592971717854
2013-12-04 23:50:00,0.743946081394,0,0.576105079951
2013-12-04 23:55:00,0.748672459847,0,0.561100931285
2013-12-05 00:00:00,0.76362561366,0,0.543878620502
2013-12-05 00:05:00,0.755815054648,0,0.532585370738
2013-12-05 00:10:00,0.749580338579,0,0.523779707472
2013-12-05 00:15:00,0.749057553891,0,0.525164225066
2013-12-05 00:20:00,0.756306739083,0,0.517904222324
2013-12-05 00:25:00,0.759387718728,0,0.515396997752
2013-12-05 00:30:00,0.755433310167,0,0.515160216348
2013-12-05 00:35:00,0.763981762755,0,0.514616303191
2013-12-05 00:40:00,0.745046519128,0,0.51406658027
2013-12-05 00:45:00,0.743816770858,0,0.516492020959
2013-12-05 00:50:00,0.756354512076,0,0.52012280355
2013-12-05 00:55:00,0.749745620648,0,0.523152275134
2013-12-05 01:00:00,0.765551406263,0,0.515178127169
2013-12-05 01:05:00,0.747129451134,0,0.516141189656
2013-12-05 01:10:00,0.757872824057,0,0.515358957309
2013-12-05 01:15:00,0.75765027581,0,0.516226776268
2013-12-05 01:20:00,0.754450317803,0,0.516717728062
2013-12-05 01:25:00,0.748271703063,0,0.524560114491
2013-12-05 01:30:00,0.763115272756,0,0.515539646212
2013-12-05 01:35:00,0.765903193258,0,0.504503089595
2013-12-05 01:40:00,0.74684366579,0,0.509256563939
2013-12-05 01:45:00,0.754766574887,0,0.506747236583
2013-12-05 01:50:00,0.751585561624,0,0.513725989205
2013-12-05 01:55:00,0.765782049538,0,0.504404689991
2013-12-05 02:00:00,0.75883259621,0,0.503924952566
2013-12-05 02:05:00,0.756691036798,0,0.504404423505
2013-12-05 02:10:00,0.752463610377,0,0.505397448495
2013-12-05 02:15:00,0.760803454099,0,0.500866662469
2013-12-05 02:20:00,0.765300582266,0,0.501959031161
2013-12-05 02:25:00,0.759538263208,0,0.501222611837
2013-12-05 02:30:00,0.748314689341,0,0.500487289574
2013-12-05 02:35:00,0.755904241838,0,0.5000813986
2013-12-05 02:40:00,0.74992512032,0,0.50074860972
2013-12-05 02:45:00,0.750795432605,0,0.508239420311
2013-12-05 02:50:00,0.765780145864,0,0.504767004474
2013-12-05 02:55:00,0.752538716304,0,0.506842412774
2013-12-05 03:00:00,0.7492022403,0,0.508472380168
2013-12-05 03:05:00,0.756552600939,0,0.510596654894
2013-12-05 03:10:00,0.761110555792,0,0.512690238913
2013-12-05 03:15:00,0.764560592113,0,0.51018075098
2013-12-05 03:20:00,0.745384264607,0,0.511645040483
2013-12-05 03:25:00,0.7638498832,0,0.507674414543
2013-12-05 03:30:00,0.764500695559,0,0.500388960269
2013-12-05 03:35:00,0.744888088498,0,0.503341839453
2013-12-05 03:40:00,0.757293397945,0,0.507583712684
2013-12-05 03:45:00,0.744148680065,0,0.511776406139
2013-12-05 03:50:00,0.75645542565,0,0.508151882488
2013-12-05 03:55:00,0.76420986191,0,0.504324711822
2013-12-05 04:00:00,0.744285504379,0,0.512733012555
2013-12-05 04:05:00,0.764185854296,0,0.512920236813
2013-12-05 04:10:00,0.755524053465,0,0.507853388482