timestamp,value,is_anomaly,anomaly_score
2014-07-06 20:10:00,0.0036336882189244393,0,0.0036336882189244393
2014-07-06 20:15:00,0.006412154826724496,0,0.006412154826724496
2014-07-06 20:20:00,0.004503324633803547,0,0.004503324633803547
2014-07-06 20:25:00,0.005527791253310449,0,0.005527791253310449
2014-07-06 20:35:00,0.0,0,0.0
2014-07-06 20:40:00,0.0,0,0.0
2014-07-06 20:45:00,0.0,0,0.0
2014-07-06 20:50:00,0.0,0,0.0
2014-07-06 20:55:00,0.0031217106432933567,0,0.0031217106432933567
2014-07-06 21:00:00,0.0,0,0.0
2014-07-06 21:05:00,0.0,0,0.0
2014-07-06 21:10:00,0.0,0,0.0
2014-07-06 21:15:00,0.0,0,0.0
2014-07-06 21:20:00,0.0,0,0.0
2014-07-06 21:25:00,0.0,0,0.0
2014-07-06 21:30:00,0.0,0,0.0
2014-07-06 21:35:00,0.0,0,0.0
2014-07-06 21:40:00,0.0,0,0.0
2014-07-06 21:45:00,0.0,0,0.0
2014-07-06 21:50:00,0.0,0,0.0
2014-07-06 21:55:00,0.0,0,0.0
2014-07-06 22:00:00,0.0,0,0.0
2014-07-06 22:05:00,0.0,0,0.0
2014-07-06 22:10:00,0.0,0,0.0
2014-07-06 22:15:00,0.0,0,0.0
2014-07-06 22:20:00,0.0,0,0.0
2014-07-06 22:25:00,0.0,0,0.0
2014-07-06 22:30:00,0.0,0,0.0
2014-07-06 22:35:00,0.0,0,0.0
2014-07-06 22:40:00,0.0,0,0.0
2014-07-06 22:45:00,0.0,0,0.0
2014-07-06 22:50:00,0.0,0,0.0
2014-07-06 22:55:00,0.0,0,0.0
2014-07-06 23:00:00,0.0,0,0.0
2014-07-06 23:05:00,0.0,0,0.0
2014-07-06 23:10:00,0.0,0,0.0
2014-07-06 23:15:00,0.0,0,0.0
2014-07-06 23:20:00,0.0,0,0.0
2014-07-06 23:25:00,0.0,0,0.0
2014-07-06 23:30:00,0.0,0,0.0
2014-07-06 23:35:00,0.0,0,0.0
2014-07-06 23:40:00,0.0,0,0.0
2014-07-06 23:45:00,0.0,0,0.0
2014-07-06 23:50:00,0.0,0,0.0
2014-07-06 23:55:00,0.0,0,0.0
2014-07-07 00:00:00,0.0,0,0.0
2014-07-07 00:05:00,0.0,0,0.0
2014-07-07 00:10:00,0.0,0,0.0
2014-07-07 00:15:00,0.0,0,0.0
2014-07-07 00:20:00,0.0,0,0.0
2014-07-07 00:25:00,0.0,0,0.0
2014-07-07 00:30:00,0.0,0,0.0
2014-07-07 00:35:00,0.0,0,0.0
2014-07-07 00:40:00,0.0,0,0.0
2014-07-07 00:45:00,0.0,0,0.0
2014-07-07 00:50:00,0.0,0,0.0
2014-07-07 00:55:00,0.0,0,0.0
2014-07-07 01:00:00,0.0,0,0.0
2014-07-07 01:05:00,0.0,0,0.0
2014-07-07 01:10:00,0.0,0,0.0
2014-07-07 01:15:00,0.0,0,0.0
2014-07-07 01:20:00,0.0,0,0.0
2014-07-07 01:25:00,0.0,0,0.0
2014-07-07 01:30:00,0.0,0,0.0
2014-07-07 01:35:00,0.0,0,0.0
2014-07-07 01:40:00,0.0,0,0.0
2014-07-07 01:45:00,0.0,0,0.0
2014-07-07 01:50:00,0.0,0,0.0
2014-07-07 01:55:00,0.0,0,0.0
2014-07-07 02:00:00,0.0,0,0.0
2014-07-07 02:05:00,0.0,0,0.0
2014-07-07 02:10:00,0.0,0,0.0
2014-07-07 02:15:00,0.0,0,0.0
2014-07-07 02:20:00,0.0,0,0.0
2014-07-07 02:25:00,0.0,0,0.0
2014-07-07 02:30:00,0.0,0,0.0
2014-07-07 02:35:00,0.0,0,0.0
2014-07-07 02:40:00,0.0,0,0.0
2014-07-07 02:45:00,0.0,0,0.0
2014-07-07 02:50:00,0.0,0,0.0
2014-07-07 02:55:00,0.0,0,0.0
2014-07-07 03:00:00,0.0,0,0.0
2014-07-07 03:05:00,0.0,0,0.0
2014-07-07 03:10:00,0.0,0,0.0
2014-07-07 03:15:00,0.0,0,0.0
2014-07-07 03:20:00,0.0,0,0.0
2014-07-07 03:25:00,0.0,0,0.0
2014-07-07 03:30:00,0.0,0,0.0
2014-07-07 03:35:00,0.0,0,0.0
2014-07-07 03:40:00,0.0,0,0.0
2014-07-07 03:45:00,0.0,0,0.0
2014-07-07 03:50:00,0.0,0,0.0
2014-07-07 03:55:00,0.0,0,0.0
2014-07-07 04:00:00,0.0,0,0.0
2014-07-07 04:05:00,0.0,0,0.0
2014-07-07 04:10:00,0.0,0,0.0
2014-07-07 04:15:00,0.0,0,0.0
2014-07-07 04:20:00,0.0,0,0.0
2014-07-07 04:25:00,0.0,0,0.0
2014-07-07 04:30:00,0.0,0,0.0
2014-07-07 04:35:00,0.0,0,0.0
2014-07-07 04:40:00,0.0,0,0.0
2014-07-07 04:45:00,0.0,0,0.0
2014-07-07 04:50:00,0.0,0,0.0
2014-07-07 04:55:00,0.0,0,0.0
2014-07-07 05:00:00,0.0,0,0.0
2014-07-07 05:05:00,0.0,0,0.0
2014-07-07 05:10:00,0.0,0,0.0
2014-07-07 05:15:00,0.0,0,0.0
2014-07-07 05:20:00,0.0,0,0.0
2014-07-07 05:25:00,0.0,0,0.0
2014-07-07 05:30:00,0.0,0,0.0
2014-07-07 05:35:00,0.0,0,0.0
2014-07-07 05:40:00,0.0,0,0.0
2014-07-07 05:45:00,0.0,0,0.0
2014-07-07 05:50:00,0.0,0,0.0
2014-07-07 05:55:00,0.0,0,0.0
2014-07-07 06:00:00,0.0,0,0.0
2014-07-07 06:05:00,0.0,0,0.0
2014-07-07 06:10:00,0.0,0,0.0
2014-07-07 06:15:00,0.0,0,0.0
2014-07-07 06:20:00,0.0,0,0.0
2014-07-07 06:25:00,0.0,0,0.0
2014-07-07 06:30:00,0.0,0,0.0
2014-07-07 06:35:00,0.0,0,0.0
2014-07-07 06:40:00,0.0,0,0.0
2014-07-07 06:45:00,0.0,0,0.0
2014-07-07 06:50:00,0.0,0,0.0
2014-07-07 06:55:00,0.0,0,0.0
2014-07-07 07:00:00,0.0,0,0.0
2014-07-07 07:05:00,0.0,0,0.0
2014-07-07 07:10:00,0.0,0,0.0
2014-07-07 07:15:00,0.0,0,0.0
2014-07-07 07:20:00,0.0,0,0.0
2014-07-07 07:25:00,0.0,0,0.0
2014-07-07 07:30:00,0.0,0,0.0
2014-07-07 07:35:00,0.0,0,0.0
2014-07-07 07:40:00,0.0,0,0.0
2014-07-07 07:45:00,0.0,0,0.0
2014-07-07 07:50:00,0.0,0,0.0
2014-07-07 07:55:00,0.0,0,0.0
2014-07-07 08:00:00,0.0,0,0.0
2014-07-07 08:05:00,0.0,0,0.0
2014-07-07 08:10:00,0.0,0,0.0
2014-07-07 08:15:00,0.0,0,0.0
2014-07-07 08:20:00,0.0,0,0.0
2014-07-07 08:25:00,0.0,0,0.0
2014-07-07 08:30:00,0.0,0,0.0
2014-07-07 08:35:00,0.0,0,0.0
2014-07-07 08:40:00,0.0,0,0.0
2014-07-07 08:45:00,0.0,0,0.0
2014-07-07 08:50:00,0.0,0,0.0
2014-07-07 08:55:00,0.0,0,0.0
2014-07-07 09:00:00,0.0,0,0.0
2014-07-07 09:05:00,0.0,0,0.0
2014-07-07 09:10:00,0.0,0,0.0
2014-07-07 09:15:00,0.0,0,0.0
2014-07-07 09:20:00,0.0,0,0.0
2014-07-07 09:25:00,0.0,0,0.0
2014-07-07 09:30:00,0.0,0,0.0
2014-07-07 09:35:00,0.0,0,0.0
2014-07-07 09:40:00,0.0,0,0.0
2014-07-07 09:45:00,0.0,0,0.0
2014-07-07 09:50:00,0.0,0,0.0
2014-07-07 09:55:00,0.0,0,0.0
2014-07-07 10:00:00,0.0,0,0.0
2014-07-07 10:05:00,0.0,0,0.0
2014-07-07 10:10:00,0.0,0,0.0
2014-07-07 10:15:00,0.0,0,0.0
2014-07-07 10:20:00,0.0,0,0.0
2014-07-07 10:25:00,0.0,0,0.0
2014-07-07 10:30:00,0.0,0,0.0
2014-07-07 10:35:00,0.0,0,0.0
2014-07-07 10:40:00,0.0,0,0.0
2014-07-07 10:45:00,0.0,0,0.0
2014-07-07 10:50:00,0.0,0,0.0
2014-07-07 10:55:00,0.0,0,0.0
2014-07-07 11:00:00,0.0,0,0.0
2014-07-07 11:05:00,0.0,0,0.0
2014-07-07 11:10:00,0.0,0,0.0
2014-07-07 11:15:00,0.0,0,0.0
2014-07-07 11:20:00,0.0,0,0.0
2014-07-07 11:25:00,0.0,0,0.0
2014-07-07 11:30:00,0.0,0,0.0
2014-07-07 11:35:00,0.0,0,0.0
2014-07-07 11:40:00,0.0,0,0.0
2014-07-07 11:45:00,0.0,0,0.0
2014-07-07 11:50:00,0.0,0,0.0
2014-07-07 11:55:00,0.0,0,0.0
2014-07-07 12:00:00,0.0,0,0.0
2014-07-07 12:05:00,0.0,0,0.0
2014-07-07 12:10:00,0.0,0,0.0
2014-07-07 12:15:00,0.0,0,0.0
2014-07-07 12:20:00,0.0,0,0.0
2014-07-07 12:25:00,0.0,0,0.0
2014-07-07 12:30:00,0.0,0,0.0
2014-07-07 12:35:00,0.0,0,0.0
2014-07-07 12:40:00,0.0,0,0.0
2014-07-07 12:45:00,0.0,0,0.0
2014-07-07 12:50:00,0.0,0,0.0
2014-07-07 12:55:00,0.0,0,0.0
2014-07-07 13:00:00,0.0,0,0.0
2014-07-07 13:05:00,0.0,0,0.0
2014-07-07 13:10:00,0.0,0,0.0
2014-07-07 13:15:00,0.0,0,0.0
2014-07-07 13:20:00,0.0,0,0.0
2014-07-07 13:25:00,0.0,0,0.0
2014-07-07 13:30:00,0.0,0,0.0
2014-07-07 13:35:00,0.0,0,0.0
2014-07-07 13:40:00,0.0,0,0.0
2014-07-07 13:45:00,0.0,0,0.0
2014-07-07 13:50:00,0.0,0,0.0
2014-07-07 13:55:00,0.0,0,0.0
2014-07-07 14:00:00,0.0,0,0.0
2014-07-07 14:05:00,0.0,0,0.0
2014-07-07 14:10:00,0.0,0,0.0
2014-07-07 14:15:00,0.0,0,0.0
2014-07-07 14:20:00,0.0,0,0.0
2014-07-07 14:25:00,0.0,0,0.0
2014-07-07 14:30:00,0.0,0,0.0
2014-07-07 14:35:00,0.0,0,0.0
2014-07-07 14:40:00,0.0,0,0.0
2014-07-07 14:45:00,0.0,0,0.0
2014-07-07 14:50:00,0.0,0,0.0
2014-07-07 14:55:00,0.0,0,0.0
2014-07-07 15:00:00,0.0,0,0.0
2014-07-07 15:05:00,0.0,0,0.0
2014-07-07 15:10:00,0.0,0,0.0
2014-07-07 15:15:00,0.0,0,0.0
2014-07-07 15:20:00,0.0,0,0.0
2014-07-07 15:25:00,0.0,0,0.0
2014-07-07 15:30:00,0.0,0,0.0
2014-07-07 15:35:00,0.0,0,0.0
2014-07-07 15:40:00,0.0,0,0.0
2014-07-07 15:45:00,0.0,0,0.0
2014-07-07 15:50:00,0.0,0,0.0
2014-07-07 15:55:00,0.0,0,0.0
2014-07-07 16:00:00,0.0,0,0.0
2014-07-07 16:05:00,0.0,0,0.0
2014-07-07 16:10:00,0.0,0,0.0
2014-07-07 16:15:00,0.005283066395652235,0,0.005283066395652235
2014-07-07 16:20:00,0.0,0,0.0
2014-07-07 16:25:00,0.0,0,0.0
2014-07-07 16:30:00,0.0,0,0.0
2014-07-07 16:35:00,0.003603699793674024,0,0.003603699793674024
2014-07-07 16:40:00,0.00879901785078614,0,0.00879901785078614
2014-07-07 16:45:00,0.006773819723676825,0,0.006773819723676825
2014-07-07 16:50:00,0.0037026558060344367,0,0.0037026558060344367
2014-07-07 16:55:00,0.042715319781147565,0,0.042715319781147565
2014-07-07 17:00:00,0.0,0,0.0
2014-07-07 17:05:00,0.0,0,0.0
2014-07-07 17:10:00,0.0,0,0.0
2014-07-07 17:15:00,0.0,0,0.0
2014-07-07 17:20:00,0.0,0,0.0
2014-07-07 17:25:00,0.0008057631845852077,0,0.0008057631845852077
2014-07-07 17:30:00,0.0,0,0.0
2014-07-07 17:35:00,0.0,0,0.0
2014-07-07 17:40:00,0.0,0,0.0
2014-07-07 17:45:00,0.03238431832997452,0,0.03238431832997452
2014-07-07 17:50:00,0.003115440848768105,0,0.003115440848768105
2014-07-07 17:55:00,0.0,0,0.0
2014-07-07 18:00:00,0.0,0,0.0
2014-07-07 18:05:00,0.003707702540916601,0,0.003707702540916601
2014-07-07 18:10:00,0.006228243341774438,0,0.006228243341774438
2014-07-07 18:15:00,0.0032597361413154746,0,0.0032597361413154746
2014-07-07 18:20:00,0.004547721173184749,0,0.004547721173184749
2014-07-07 18:25:00,0.019732506511080727,0,0.019732506511080727
2014-07-07 18:30:00,0.004020622389634919,0,0.004020622389634919
2014-07-07 18:35:00,0.0022960458517650604,0,0.0022960458517650604
2014-07-07 18:40:00,0.0,0,0.0
2014-07-07 18:45:00,0.0030340070849848816,0,0.0030340070849848816
2014-07-07 18:50:00,0.008770418192160288,0,0.008770418192160288
2014-07-07 18:55:00,0.016657448430797597,0,0.016657448430797597
2014-07-07 19:00:00,0.0,0,0.0
2014-07-07 19:05:00,0.0,0,0.0
2014-07-07 19:10:00,0.0,0,0.0
2014-07-07 19:15:00,0.0,0,0.0
2014-07-07 19:20:00,0.0,0,0.0
2014-07-07 19:25:00,0.0,0,0.0
2014-07-07 19:30:00,0.0,0,0.0
2014-07-07 19:35:00,0.0,0,0.0
2014-07-07 19:40:00,0.0,0,0.0
2014-07-07 19:45:00,0.0,0,0.0
2014-07-07 19:50:00,0.0,0,0.0
2014-07-07 19:55:00,0.0,0,0.0
2014-07-07 20:00:00,0.0,0,0.0
2014-07-07 20:05:00,0.0,0,0.0
2014-07-07 20:10:00,0.0,0,0.0
2014-07-07 20:15:00,0.02786416338301722,0,0.02786416338301722
2014-07-07 20:20:00,0.0029693808452215635,0,0.0029693808452215635
2014-07-07 20:25:00,0.0,0,0.0
2014-07-07 20:30:00,0.0,0,0.0
2014-07-07 20:35:00,0.0031939970819152533,0,0.0031939970819152533
2014-07-07 20:40:00,0.004461290291543423,0,0.004461290291543423
2014-07-07 20:45:00,0.004432320767495836,0,0.004432320767495836
2014-07-07 20:50:00,0.006044135782836292,0,0.006044135782836292
2014-07-07 20:55:00,0.00657947670354249,0,0.00657947670354249
2014-07-07 21:00:00,0.0067268802146603175,0,0.0067268802146603175
2014-07-07 21:05:00,0.003492398347494951,0,0.003492398347494951
2014-07-07 21:10:00,0.02627263788606551,0,0.02627263788606551
2014-07-07 21:15:00,0.005216793117040373,0,0.005216793117040373
2014-07-07 21:20:00,0.00325264415106488,0,0.00325264415106488
2014-07-07 21:25:00,0.00807631205861862,0,0.00807631205861862
2014-07-07 21:30:00,0.007147897373993326,0,0.007147897373993326
2014-07-07 21:35:00,0.006861772637023839,0,0.006861772637023839
2014-07-07 21:40:00,0.0032924083097606487,0,0.0032924083097606487
2014-07-07 21:45:00,0.016460272663728553,0,0.016460272663728553
2014-07-07 21:50:00,0.0023382693250996282,0,0.0023382693250996282
2014-07-07 21:55:00,0.0,0,0.0
2014-07-07 22:00:00,0.005203076004977815,0,0.005203076004977815
2014-07-07 22:05:00,0.004034458266810523,0,0.004034458266810523
2014-07-07 22:10:00,0.002883026137856196,0,0.002883026137856196
2014-07-07 22:15:00,0.0029781191664974217,0,0.0029781191664974217
2014-07-07 22:20:00,0.0,0,0.0
2014-07-07 22:25:00,0.0,0,0.0
2014-07-07 22:30:00,0.0017765836521461333,0,0.0017765836521461333
2014-07-07 22:35:00,0.0,0,0.0
2014-07-07 22:40:00,0.00354889007740745,0,0.00354889007740745
2014-07-07 22:45:00,0.0,0,0.0
2014-07-07 22:50:00,0.002620220718659847,0,0.002620220718659847
2014-07-07 22:55:00,0.005984565805811646,0,0.005984565805811646
2014-07-07 23:00:00,0.0038716912362709906,0,0.0038716912362709906
2014-07-07 23:05:00,0.010925754604934316,0,0.010925754604934316
2014-07-07 23:10:00,0.004700329249897359,0,0.004700329249897359
2014-07-07 23:15:00,0.0046562507001248355,0,0.0046562507001248355
2014-07-07 23:20:00,0.003136816410949372,0,0.003136816410949372
2014-07-07 23:25:00,0.004624462675820917,0,0.004624462675820917
2014-07-07 23:30:00,0.0,0,0.0
2014-07-07 23:35:00,0.0,0,0.0
2014-07-07 23:40:00,0.0,0,0.0
2014-07-07 23:45:00,0.0,0,0.0
2014-07-07 23:50:00,0.0047945819812737645,0,0.0047945819812737645
2014-07-07 23:55:00,0.003534541503705536,0,0.003534541503705536
2014-07-08 00:00:00,0.0,0,0.0
2014-07-08 00:05:00,0.0073366938215087794,0,0.0073366938215087794
2014-07-08 00:10:00,0.003372500241848295,0,0.003372500241848295
2014-07-08 00:20:00,0.0,0,0.0
2014-07-08 00:25:00,0.004974701400151825,0,0.004974701400151825
2014-07-08 00:30:00,0.024965603036237103,0,0.024965603036237103
2014-07-08 00:35:00,0.0,0,0.0
2014-07-08 00:40:00,0.0,0,0.0
2014-07-08 00:45:00,0.0,0,0.0
2014-07-08 00:50:00,0.0028402366800054225,0,0.0028402366800054225
2014-07-08 00:55:00,0.00682975977820649,0,0.00682975977820649
2014-07-08 01:00:00,0.0038865901113458415,0,0.0038865901113458415
2014-07-08 01:05:00,0.0014585087681140436,0,0.0014585087681140436
2014-07-08 01:10:00,0.0,0,0.0
2014-07-08 01:15:00,0.003963119301695139,0,0.003963119301695139
2014-07-08 01:20:00,0.010485886630075604,0,0.010485886630075604
2014-07-08 01:25:00,0.010272050004134002,0,0.010272050004134002
2014-07-08 01:30:00,0.006969667912668111,0,0.006969667912668111
2014-07-08 01:35:00,0.0033762194506985308,0,0.0033762194506985308
2014-07-08 01:40:00,0.002426664742497656,0,0.002426664742497656
2014-07-08 01:45:00,0.0,0,0.0
2014-07-08 01:50:00,0.0,0,0.0
2014-07-08 01:55:00,0.0,0,0.0
2014-07-08 02:00:00,0.0,0,0.0
2014-07-08 02:05:00,0.0,0,0.0
2014-07-08 02:10:00,0.0,0,0.0
2014-07-08 02:15:00,0.0,0,0.0
2014-07-08 02:20:00,0.0,0,0.0
2014-07-08 02:25:00,0.0,0,0.0
2014-07-08 02:30:00,0.0,0,0.0
2014-07-08 02:35:00,0.0,0,0.0
2014-07-08 02:40:00,0.0,0,0.0
2014-07-08 02:45:00,0.0,0,0.0
2014-07-08 02:50:00,0.0,0,0.0
2014-07-08 02:55:00,0.0,0,0.0
2014-07-08 03:00:00,0.0,0,0.0
2014-07-08 03:05:00,0.0,0,0.0
2014-07-08 03:10:00,0.0,0,0.0
2014-07-08 03:15:00,0.0,0,0.0
2014-07-08 03:20:00,0.0,0,0.0
2014-07-08 03:25:00,0.0,0,0.0
2014-07-08 03:30:00,0.0,0,0.0
2014-07-08 03:35:00,0.0,0,0.0
2014-07-08 03:40:00,0.0,0,0.0
2014-07-08 03:45:00,0.0,0,0.0
2014-07-08 03:50:00,0.0,0,0.0
2014-07-08 03:55:00,0.0,0,0.0
2014-07-08 04:00:00,0.0,0,0.0
2014-07-08 04:05:00,0.0,0,0.0
2014-07-08 04:10:00,0.0,0,0.0
2014-07-08 04:15:00,0.0,0,0.0
2014-07-08 04:20:00,0.0,0,0.0
2014-07-08 04:25:00,0.0,0,0.0
2014-07-08 04:30:00,0.0,0,0.0
2014-07-08 04:35:00,0.0,0,0.0
2014-07-08 04:40:00,0.0,0,0.0
2014-07-08 04:45:00,0.0,0,0.0
2014-07-08 04:50:00,0.0,0,0.0
2014-07-08 04:55:00,0.0,0,0.0
2014-07-08 05:00:00,0.0,0,0.0
2014-07-08 05:05:00,0.0,0,0.0
2014-07-08 05:10:00,0.0,0,0.0
2014-07-08 05:15:00,0.0,0,0.0
2014-07-08 05:20:00,0.0,0,0.0
2014-07-08 05:25:00,0.0,0,0.0
2014-07-08 05:30:00,0.0,0,0.0
2014-07-08 05:35:00,0.0,0,0.0
2014-07-08 05:40:00,0.0,0,0.0
2014-07-08 05:45:00,0.0,0,0.0
2014-07-08 05:50:00,0.0,0,0.0
2014-07-08 05:55:00,0.0,0,0.0
2014-07-08 06:00:00,0.0,0,0.0
2014-07-08 06:05:00,0.0,0,0.0
2014-07-08 06:10:00,0.0,0,0.0
2014-07-08 06:15:00,0.0,0,0.0
2014-07-08 06:20:00,0.0,0,0.0
2014-07-08 06:25:00,0.0,0,0.0
2014-07-08 06:30:00,0.0,0,0.0
2014-07-08 06:35:00,0.0,0,0.0
2014-07-08 06:40:00,0.0,0,0.0
2014-07-08 06:45:00,0.0,0,0.0
2014-07-08 06:50:00,0.0,0,0.0
2014-07-08 06:55:00,0.0,0,0.0
2014-07-08 07:00:00,0.0,0,0.0
2014-07-08 07:05:00,0.0,0,0.0
2014-07-08 07:10:00,0.0,0,0.0
2014-07-08 07:15:00,0.0,0,0.0
2014-07-08 07:20:00,0.0,0,0.0
2014-07-08 07:25:00,0.0,0,0.0
2014-07-08 07:30:00,0.0,0,0.0
2014-07-08 07:35:00,0.0,0,0.0
2014-07-08 07:40:00,0.0,0,0.0
2014-07-08 07:45:00,0.0,0,0.0
2014-07-08 07:50:00,0.0,0,0.0
2014-07-08 07:55:00,0.0,0,0.0
2014-07-08 08:00:00,0.0,0,0.0
2014-07-08 08:05:00,0.0,0,0.0
2014-07-08 08:10:00,0.0,0,0.0
2014-07-08 08:15:00,0.0,0,0.0
2014-07-08 08:20:00,0.0,0,0.0
2014-07-08 08:25:00,0.0,0,0.0
2014-07-08 08:30:00,0.0,0,0.0
2014-07-08 08:35:00,0.0,0,0.0
2014-07-08 08:40:00,0.0,0,0.0
2014-07-08 08:45:00,0.0,0,0.0
2014-07-08 08:50:00,0.0,0,0.0
2014-07-08 08:55:00,0.0,0,0.0
2014-07-08 09:00:00,0.0,0,0.0
2014-07-08 09:05:00,0.0,0,0.0
2014-07-08 09:10:00,0.0,0,0.0
2014-07-08 09:15:00,0.0,0,0.0
2014-07-08 09:20:00,0.0,0,0.0
2014-07-08 09:25:00,0.0,0,0.0
2014-07-08 09:30:00,0.0,0,0.0
2014-07-08 09:35:00,0.0,0,0.0
2014-07-08 09:40:00,0.0,0,0.0
2014-07-08 09:45:00,0.0,0,0.0
2014-07-08 09:50:00,0.0,0,0.0
2014-07-08 09:55:00,0.0,0,0.0
2014-07-08 10:00:00,0.0,0,0.0
2014-07-08 10:05:00,0.0,0,0.0
2014-07-08 10:10:00,0.0,0,0.0
2014-07-08 10:15:00,0.0,0,0.0
2014-07-08 10:20:00,0.0,0,0.0
2014-07-08 10:25:00,0.0,0,0.0
2014-07-08 10:30:00,0.0,0,0.0
2014-07-08 10:35:00,0.0,0,0.0
2014-07-08 10:40:00,0.0,0,0.0
2014-07-08 10:45:00,0.0,0,0.0
2014-07-08 10:50:00,0.0,0,0.0
2014-07-08 10:55:00,0.0,0,0.0
2014-07-08 11:00:00,0.0,0,0.0
2014-07-08 11:05:00,0.0,0,0.0
2014-07-08 11:10:00,0.0,0,0.0
2014-07-08 11:15:00,0.0,0,0.0
2014-07-08 11:20:00,0.0,0,0.0
2014-07-08 11:25:00,0.0,0,0.0
2014-07-08 11:30:00,0.0,0,0.0
2014-07-08 11:35:00,0.0,0,0.0
2014-07-08 11:40:00,0.0,0,0.0
2014-07-08 11:45:00,0.0,0,0.0
2014-07-08 11:50:00,0.0,0,0.0
2014-07-08 11:55:00,0.0,0,0.0
2014-07-08 12:00:00,0.0,0,0.0
2014-07-08 12:05:00,0.0,0,0.0
2014-07-08 12:10:00,0.0,0,0.0
2014-07-08 12:15:00,0.0,0,0.0
2014-07-08 12:20:00,0.0,0,0.0
2014-07-08 12:25:00,0.0,0,0.0
2014-07-08 12:30:00,0.0,0,0.0
2014-07-08 12:35:00,0.0,0,0.0
2014-07-08 12:40:00,0.0,0,0.0
2014-07-08 12:45:00,0.0,0,0.0
2014-07-08 12:50:00,0.0,0,0.0
2014-07-08 12:55:00,0.0,0,0.0
2014-07-08 13:00:00,0.0,0,0.0
2014-07-08 13:05:00,0.0,0,0.0
2014-07-08 13:10:00,0.0,0,0.0
2014-07-08 13:15:00,0.0,0,0.0
2014-07-08 13:20:00,0.0,0,0.0
2014-07-08 13:25:00,0.0,0,0.0
2014-07-08 13:30:00,0.0,0,0.0
2014-07-08 13:35:00,0.0,0,0.0
2014-07-08 13:40:00,0.0,0,0.0
2014-07-08 13:45:00,0.0,0,0.0
2014-07-08 13:50:00,0.0,0,0.0
2014-07-08 13:55:00,0.0,0,0.0
2014-07-08 14:00:00,0.0,0,0.0
2014-07-08 14:05:00,0.0,0,0.0
2014-07-08 14:10:00,0.0,0,0.0
2014-07-08 14:15:00,0.0,0,0.0
2014-07-08 14:20:00,0.0,0,0.0
2014-07-08 14:25:00,0.0,0,0.0
2014-07-08 14:30:00,0.0,0,0.0
2014-07-08 14:35:00,0.0,0,0.0
2014-07-08 14:40:00,0.0,0,0.0
2014-07-08 14:45:00,0.0,0,0.0
2014-07-08 14:50:00,0.0,0,0.0
2014-07-08 14:55:00,0.0,0,0.0
2014-07-08 15:00:00,0.0,0,0.0
2014-07-08 15:05:00,0.0,0,0.0
2014-07-08 15:10:00,0.0,0,0.0
2014-07-08 15:15:00,0.0,0,0.0
2014-07-08 15:20:00,0.0,0,0.0
2014-07-08 15:25:00,0.0,0,0.0
2014-07-08 15:30:00,0.0,0,0.0
2014-07-08 15:35:00,0.0,0,0.0
2014-07-08 15:40:00,0.0,0,0.0
2014-07-08 15:45:00,0.0,0,0.0
2014-07-08 15:50:00,0.0,0,0.0
2014-07-08 15:55:00,0.0,0,0.0
2014-07-08 16:00:00,0.0,0,0.0
2014-07-08 16:05:00,0.0,0,0.0
2014-07-08 16:10:00,0.0,0,0.0
2014-07-08 16:15:00,0.0,0,0.0
2014-07-08 16:20:00,0.007380117634747025,0,0.007380117634747025
2014-07-08 16:25:00,0.006575816223206187,0,0.006575816223206187
2014-07-08 16:30:00,0.003546812411366169,0,0.003546812411366169
2014-07-08 16:35:00,0.0,0,0.0
2014-07-08 16:40:00,0.0029156076910426053,0,0.0029156076910426053
2014-07-08 16:45:00,0.002558850441697861,0,0.002558850441697861
2014-07-08 16:50:00,0.0,0,0.0
2014-07-08 16:55:00,0.0,0,0.0
2014-07-08 17:00:00,0.0,0,0.0
2014-07-08 17:05:00,0.0,0,0.0
2014-07-08 17:10:00,0.0,0,0.0
2014-07-08 17:15:00,0.0,0,0.0
2014-07-08 17:20:00,0.01217304630738466,0,0.01217304630738466
2014-07-08 17:25:00,0.0,0,0.0
2014-07-08 17:30:00,0.003495243051091541,0,0.003495243051091541
2014-07-08 17:35:00,0.0,0,0.0
2014-07-08 17:40:00,0.0,0,0.0
2014-07-08 17:50:00,0.0,0,0.0
2014-07-08 17:55:00,0.011121279922418128,0,0.011121279922418128
2014-07-08 18:00:00,0.0036159238149817813,0,0.0036159238149817813
2014-07-08 18:05:00,0.004672297404331186,0,0.004672297404331186
2014-07-08 18:10:00,0.007322744130513369,0,0.007322744130513369
2014-07-08 18:15:00,0.015406346588493554,0,0.015406346588493554
2014-07-08 18:20:00,0.004311227051176535,0,0.004311227051176535
2014-07-08 18:25:00,0.002932656568922205,0,0.002932656568922205
2014-07-08 18:30:00,0.006962272578505244,0,0.006962272578505244
2014-07-08 18:35:00,0.010391783145319685,0,0.010391783145319685
2014-07-08 18:40:00,0.0,0,0.0
2014-07-08 18:45:00,0.005958910726729067,0,0.005958910726729067
2014-07-08 18:50:00,0.0,0,0.0
2014-07-08 18:55:00,0.0,0,0.0
2014-07-08 19:00:00,0.03034714405849443,0,0.03034714405849443
2014-07-08 19:05:00,0.0,0,0.0
2014-07-08 19:10:00,0.0397955347669246,0,0.0397955347669246
2014-07-08 19:15:00,0.0,0,0.0
2014-07-08 19:20:00,0.0,0,0.0
2014-07-08 19:25:00,0.0,0,0.0
2014-07-08 19:30:00,0.0,0,0.0
2014-07-08 19:35:00,0.0036435924118860025,0,0.0036435924118860025
2014-07-08 19:40:00,0.0019844316906486386,0,0.0019844316906486386
2014-07-08 19:45:00,0.002333831044130488,0,0.002333831044130488
2014-07-08 19:50:00,0.004413116793259646,0,0.004413116793259646
2014-07-08 19:55:00,0.0054602602664119825,0,0.0054602602664119825
2014-07-08 20:00:00,0.010695747502864523,0,0.010695747502864523
2014-07-08 20:05:00,0.0,0,0.0
2014-07-08 20:10:00,0.0,0,0.0
2014-07-08 20:15:00,0.0,0,0.0
2014-07-08 20:20:00,0.08447274592557402,0,0.08447274592557402
2014-07-08 20:25:00,0.0,0,0.0
2014-07-08 20:40:00,0.0,0,0.0
2014-07-08 20:45:00,0.0,0,0.0
2014-07-08 20:50:00,0.0,0,0.0
2014-07-08 20:55:00,0.0,0,0.0
2014-07-08 21:00:00,0.0,0,0.0
2014-07-08 21:05:00,0.00998944396078255,0,0.00998944396078255
2014-07-08 21:10:00,0.0,0,0.0
2014-07-08 21:15:00,0.02123183666564216,0,0.02123183666564216
2014-07-08 21:20:00,0.017997029262222852,0,0.017997029262222852
2014-07-08 21:25:00,0.0,0,0.0
2014-07-08 21:30:00,0.0,0,0.0
2014-07-08 21:35:00,0.0,0,0.0
2014-07-08 21:40:00,0.0,0,0.0
2014-07-08 21:45:00,0.0,0,0.0
2014-07-08 21:50:00,0.0,0,0.0
2014-07-08 21:55:00,0.0,0,0.0
2014-07-08 22:00:00,0.17440366285917766,0,0.17440366285917766
2014-07-08 22:05:00,0.0,0,0.0
2014-07-08 22:10:00,0.0,0,0.0
2014-07-08 22:15:00,0.03963444633235486,0,0.03963444633235486
2014-07-08 22:20:00,0.021436641688589324,0,0.021436641688589324
2014-07-08 22:25:00,0.0,0,0.0
2014-07-08 22:30:00,0.0049874389264311075,0,0.0049874389264311075
2014-07-08 22:35:00,0.0,0,0.0
2014-07-08 22:40:00,0.0,0,0.0
2014-07-08 22:45:00,0.0,0,0.0
2014-07-08 22:50:00,0.007388795596739628,0,0.007388795596739628
2014-07-08 22:55:00,0.0,0,0.0
2014-07-08 23:00:00,0.0048818542010965,0,0.0048818542010965
2014-07-08 23:05:00,0.0,0,0.0
2014-07-08 23:10:00,0.0,0,0.0
2014-07-08 23:15:00,0.0,0,0.0
2014-07-08 23:20:00,0.0,0,0.0
2014-07-08 23:25:00,0.017446907499443515,0,0.017446907499443515
2014-07-08 23:30:00,0.0,0,0.0
2014-07-08 23:35:00,0.016359568428487733,0,0.016359568428487733
2014-07-08 23:40:00,0.0,0,0.0
2014-07-08 23:45:00,0.0,0,0.0
2014-07-08 23:50:00,0.0020437144163314735,0,0.0020437144163314735
2014-07-08 23:55:00,0.0,0,0.0
2014-07-09 00:00:00,0.0,0,0.0
2014-07-09 00:05:00,0.0,0,0.0
2014-07-09 00:10:00,0.0,0,0.0
2014-07-09 00:15:00,0.0,0,0.0
2014-07-09 00:20:00,0.0,0,0.0
2014-07-09 00:25:00,0.0,0,0.0
2014-07-09 00:30:00,0.0,0,0.0
2014-07-09 00:35:00,0.0,0,0.0
2014-07-09 00:40:00,0.0,0,0.0
2014-07-09 00:45:00,0.0,0,0.0
2014-07-09 00:50:00,0.0,0,0.0
2014-07-09 00:55:00,0.0,0,0.0
2014-07-09 01:00:00,0.0,0,0.0
2014-07-09 01:05:00,0.0,0,0.0
2014-07-09 01:10:00,0.0,0,0.0
2014-07-09 01:15:00,0.0,0,0.0
2014-07-09 01:20:00,0.0,0,0.0
2014-07-09 01:25:00,0.0,0,0.0
2014-07-09 01:30:00,0.0,0,0.0
2014-07-09 01:35:00,0.0,0,0.0
2014-07-09 01:40:00,0.0,0,0.0
2014-07-09 01:45:00,0.0,0,0.0
2014-07-09 01:50:00,0.0,0,0.0
2014-07-09 01:55:00,0.0,0,0.0
2014-07-09 02:00:00,0.0,0,0.0
2014-07-09 02:05:00,0.0,0,0.0
2014-07-09 02:10:00,0.0,0,0.0
2014-07-09 02:15:00,0.0,0,0.0
2014-07-09 02:20:00,0.0,0,0.0
2014-07-09 02:25:00,0.0,0,0.0
2014-07-09 02:30:00,0.0,0,0.0
2014-07-09 02:35:00,0.0,0,0.0
2014-07-09 02:40:00,0.0,0,0.0
2014-07-09 02:45:00,0.0,0,0.0
2014-07-09 02:50:00,0.0,0,0.0
2014-07-09 02:55:00,0.0,0,0.0
2014-07-09 03:00:00,0.0,0,0.0
2014-07-09 03:05:00,0.0,0,0.0
2014-07-09 03:10:00,0.0,0,0.0
2014-07-09 03:15:00,0.0,0,0.0
2014-07-09 03:20:00,0.0,0,0.0
2014-07-09 03:25:00,0.0,0,0.0
2014-07-09 03:30:00,0.0,0,0.0
2014-07-09 03:35:00,0.0,0,0.0
2014-07-09 03:40:00,0.0,0,0.0
2014-07-09 03:45:00,0.0,0,0.0
2014-07-09 03:50:00,0.0,0,0.0
2014-07-09 03:55:00,0.0,0,0.0
2014-07-09 04:00:00,0.0,0,0.0
2014-07-09 04:05:00,0.0,0,0.0
2014-07-09 04:10:00,0.0,0,0.0
2014-07-09 04:15:00,0.0,0,0.0
2014-07-09 04:20:00,0.0,0,0.0
2014-07-09 04:25:00,0.0,0,0.0
2014-07-09 04:30:00,0.0,0,0.0
2014-07-09 04:35:00,0.0,0,0.0
2014-07-09 04:40:00,0.0,0,0.0
2014-07-09 04:45:00,0.0,0,0.0
2014-07-09 04:50:00,0.0,0,0.0
2014-07-09 04:55:00,0.0,0,0.0
2014-07-09 05:00:00,0.0,0,0.0
2014-07-09 05:05:00,0.0,0,0.0
2014-07-09 05:10:00,0.0,0,0.0
2014-07-09 05:15:00,0.0,0,0.0
2014-07-09 05:20:00,0.0,0,0.0
2014-07-09 05:25:00,0.0,0,0.0
2014-07-09 05:30:00,0.0,0,0.0
2014-07-09 05:35:00,0.0,0,0.0
2014-07-09 05:40:00,0.0,0,0.0
2014-07-09 05:45:00,0.0,0,0.0
2014-07-09 05:50:00,0.0,0,0.0
2014-07-09 05:55:00,0.0,0,0.0
2014-07-09 06:00:00,0.0,0,0.0
2014-07-09 06:05:00,0.0,0,0.0
2014-07-09 06:10:00,0.0,0,0.0
2014-07-09 06:15:00,0.0,0,0.0
2014-07-09 06:20:00,0.0,0,0.0
2014-07-09 06:25:00,0.0,0,0.0
2014-07-09 06:30:00,0.0,0,0.0
2014-07-09 06:35:00,0.0,0,0.0
2014-07-09 06:40:00,0.0,0,0.0
2014-07-09 06:45:00,0.0,0,0.0
2014-07-09 06:50:00,0.0,0,0.0
2014-07-09 06:55:00,0.0,0,0.0
2014-07-09 07:00:00,0.0,0,0.0
2014-07-09 07:05:00,0.0,0,0.0
2014-07-09 07:10:00,0.0,0,0.0
2014-07-09 07:15:00,0.0,0,0.0
2014-07-09 07:20:00,0.0,0,0.0
2014-07-09 07:25:00,0.0,0,0.0
2014-07-09 07:30:00,0.0,0,0.0
2014-07-09 07:35:00,0.0,0,0.0
2014-07-09 07:40:00,0.0,0,0.0
2014-07-09 07:45:00,0.0,0,0.0
2014-07-09 07:50:00,0.0,0,0.0
2014-07-09 07:55:00,0.0,0,0.0
2014-07-09 08:00:00,0.0,0,0.0
2014-07-09 08:05:00,0.0,0,0.0
2014-07-09 08:10:00,0.0,0,0.0
2014-07-09 08:15:00,0.0,0,0.0
2014-07-09 08:20:00,0.0,0,0.0
2014-07-09 08:25:00,0.0,0,0.0
2014-07-09 08:30:00,0.0,0,0.0
2014-07-09 08:35:00,0.0,0,0.0
2014-07-09 08:40:00,0.0,0,0.0
2014-07-09 08:45:00,0.0,0,0.0
2014-07-09 08:50:00,0.0,0,0.0
2014-07-09 08:55:00,0.0,0,0.0
2014-07-09 09:00:00,0.0,0,0.0
2014-07-09 09:05:00,0.0,0,0.0
2014-07-09 09:10:00,0.0,0,0.0
2014-07-09 09:15:00,0.0,0,0.0
2014-07-09 09:20:00,0.0,0,0.0
2014-07-09 09:25:00,0.0,0,0.0
2014-07-09 09:30:00,0.0,0,0.0
2014-07-09 09:35:00,0.0,0,0.0
2014-07-09 09:40:00,0.0,0,0.0
2014-07-09 09:45:00,0.0,0,0.0
2014-07-09 09:50:00,0.0,0,0.0
2014-07-09 09:55:00,0.0,0,0.0
2014-07-09 10:00:00,0.0,0,0.0
2014-07-09 10:05:00,0.0,0,0.0
2014-07-09 10:10:00,0.0,0,0.0
2014-07-09 10:15:00,0.0,0,0.0
2014-07-09 10:20:00,0.0,0,0.0
2014-07-09 10:25:00,0.0,0,0.0
2014-07-09 10:30:00,0.0,0,0.0
2014-07-09 10:35:00,0.0,0,0.0
2014-07-09 10:40:00,0.0,0,0.0
2014-07-09 10:45:00,0.0,0,0.0
2014-07-09 10:50:00,0.0,0,0.0
2014-07-09 10:55:00,0.0,0,0.0
2014-07-09 11:00:00,0.0,0,0.0
2014-07-09 11:05:00,0.0,0,0.0
2014-07-09 11:10:00,0.0,0,0.0
2014-07-09 11:15:00,0.0,0,0.0
2014-07-09 11:20:00,0.0,0,0.0
2014-07-09 11:25:00,0.0,0,0.0
2014-07-09 11:30:00,0.0,0,0.0
2014-07-09 11:35:00,0.0,0,0.0
2014-07-09 11:40:00,0.0,0,0.0
2014-07-09 11:45:00,0.0,0,0.0
2014-07-09 11:50:00,0.0,0,0.0
2014-07-09 11:55:00,0.0,0,0.0
2014-07-09 12:00:00,0.0,0,0.0
2014-07-09 12:05:00,0.0,0,0.0
2014-07-09 12:10:00,0.0,0,0.0
2014-07-09 12:15:00,0.0,0,0.0
2014-07-09 12:20:00,0.0,0,0.0
2014-07-09 12:25:00,0.0,0,0.0
2014-07-09 12:30:00,0.0,0,0.0
2014-07-09 12:35:00,0.0,0,0.0
2014-07-09 12:40:00,0.0,0,0.0
2014-07-09 12:45:00,0.0,0,0.0
2014-07-09 12:50:00,0.0,0,0.0
2014-07-09 12:55:00,0.0,0,0.0
2014-07-09 13:00:00,0.0,0,0.0
2014-07-09 13:05:00,0.0,0,0.0
2014-07-09 13:10:00,0.0,0,0.0
2014-07-09 13:15:00,0.0,0,0.0
2014-07-09 13:20:00,0.0,0,0.0
2014-07-09 13:25:00,0.0,0,0.0
2014-07-09 13:30:00,0.0,0,0.0
2014-07-09 13:35:00,0.0,0,0.0
2014-07-09 13:40:00,0.0,0,0.0
2014-07-09 13:45:00,0.0,0,0.0
2014-07-09 13:50:00,0.0,0,0.0
2014-07-09 13:55:00,0.0,0,0.0
2014-07-09 14:00:00,0.0,0,0.0
2014-07-09 14:05:00,0.0,0,0.0
2014-07-09 14:10:00,0.0,0,0.0
2014-07-09 14:15:00,0.0,0,0.0
2014-07-09 14:20:00,0.0,0,0.0
2014-07-09 14:25:00,0.0,0,0.0
2014-07-09 14:30:00,0.0,0,0.0
2014-07-09 14:35:00,0.0,0,0.0
2014-07-09 14:40:00,0.0,0,0.0
2014-07-09 14:45:00,0.0,0,0.0
2014-07-09 14:50:00,0.0,0,0.0
2014-07-09 14:55:00,0.0,0,0.0
2014-07-09 15:00:00,0.0,0,0.0
2014-07-09 15:05:00,0.0,0,0.0
2014-07-09 15:10:00,0.0,0,0.0
2014-07-09 15:15:00,0.0,0,0.0
2014-07-09 15:20:00,0.0,0,0.0
2014-07-09 15:25:00,0.0,0,0.0
2014-07-09 15:30:00,0.0,0,0.0
2014-07-09 15:35:00,0.0,0,0.0
2014-07-09 15:40:00,0.0,0,0.0
2014-07-09 15:45:00,0.0,0,0.0
2014-07-09 15:50:00,0.0,0,0.0
2014-07-09 15:55:00,0.0,0,0.0
2014-07-09 16:00:00,0.0,0,0.0
2014-07-09 16:05:00,0.0,0,0.0
2014-07-09 16:10:00,0.0,0,0.0
2014-07-09 16:15:00,0.0,0,0.0
2014-07-09 16:20:00,0.008346551731849087,0,0.008346551731849087
2014-07-09 16:25:00,0.014342470984909837,0,0.014342470984909837
2014-07-09 16:30:00,0.003350290943646437,0,0.003350290943646437
2014-07-09 16:35:00,0.0,0,0.0
2014-07-09 16:40:00,0.014937387212133604,0,0.014937387212133604
2014-07-09 16:45:00,0.0,0,0.0
2014-07-09 16:50:00,0.005821384122679292,0,0.005821384122679292
2014-07-09 16:55:00,0.00328900949850613,0,0.00328900949850613
2014-07-09 17:00:00,0.0,0,0.0
2014-07-09 17:05:00,0.0,0,0.0
2014-07-09 17:10:00,0.0,0,0.0
2014-07-09 17:15:00,0.0028328386290502588,0,0.0028328386290502588
2014-07-09 17:20:00,0.0,0,0.0
2014-07-09 17:25:00,0.0,0,0.0
2014-07-09 17:30:00,0.0032759645028151607,0,0.0032759645028151607
2014-07-09 17:35:00,0.0063681971169587525,0,0.0063681971169587525
2014-07-09 17:40:00,0.0,0,0.0
2014-07-09 17:45:00,0.011723113484498086,0,0.011723113484498086
2014-07-09 17:50:00,0.0,0,0.0
2014-07-09 17:55:00,0.0,0,0.0
2014-07-09 18:00:00,0.0,0,0.0
2014-07-09 18:05:00,0.0019708146939435805,0,0.0019708146939435805
2014-07-09 18:10:00,0.001471229566863747,0,0.001471229566863747
2014-07-09 18:15:00,0.0,0,0.0
2014-07-09 18:20:00,0.0013649850287916314,0,0.0013649850287916314
2014-07-09 18:25:00,0.0045479650911689744,0,0.0045479650911689744
2014-07-09 18:30:00,0.0,0,0.0
2014-07-09 18:35:00,0.0047230591451824355,0,0.0047230591451824355
2014-07-09 18:40:00,0.0033369289437478297,0,0.0033369289437478297
2014-07-09 18:45:00,0.005342990565364512,0,0.005342990565364512
2014-07-09 18:50:00,0.0029571745576627557,0,0.0029571745576627557
2014-07-09 18:55:00,0.0,0,0.0
2014-07-09 19:00:00,0.0,0,0.0
2014-07-09 19:05:00,0.0,0,0.0
2014-07-09 19:10:00,0.0,0,0.0
2014-07-09 19:15:00,0.0,0,0.0
2014-07-09 19:20:00,0.0,0,0.0
2014-07-09 19:25:00,0.0,0,0.0
2014-07-09 19:45:00,0.0,0,0.0