timestamp,value,is_anomaly,anomaly_score,S(t)_reward_low_FP_rate,S(t)_reward_low_FN_rate,S(t)_standard,predicted_anomaly
2014-07-06 20:10:00,0.0721046343155,0,0.5,0.0,0.0,0.0,0
2014-07-06 20:15:00,0.0718373686709,0,0.5,0.0,0.0,0.0,0
2014-07-06 20:20:00,0.0713731515107,0,0.5,0.0,0.0,0.0,0
2014-07-06 20:25:00,0.0733976994388,0,0.5,0.0,0.0,0.0,0
2014-07-06 20:35:00,0.0629055614622,0,0.5,0.0,0.0,0.0,0
2014-07-06 20:40:00,0.075698006751,0,0.5,0.0,0.0,0.0,0
2014-07-06 20:45:00,0.0,0,0.5,0.0,0.0,0.0,0
2014-07-06 20:55:00,0.0729463927179,0,0.5,0.0,0.0,0.0,0
2014-07-06 21:00:00,0.0705895878489,0,0.5,0.0,0.0,0.0,0
2014-07-06 21:05:00,0.0,0,0.5,0.0,0.0,0.0,0
2014-07-06 21:10:00,0.0,0,0.5,0.0,0.0,0.0,0
2014-07-06 21:15:00,0.0,0,0.5,0.0,0.0,0.0,0
2014-07-07 16:15:00,0.0736661237269,0,0.5,0.0,0.0,0.0,0
2014-07-07 16:20:00,0.0762864590957,0,0.5,0.0,0.0,0.0,0
2014-07-07 16:25:00,0.0,0,0.5,0.0,0.0,0.0,0
2014-07-07 16:35:00,0.0701523814951,0,0.5,0.0,0.0,0.0,0
2014-07-07 16:40:00,0.0743873318109,0,0.5,0.0,0.0,0.0,0
2014-07-07 16:45:00,0.0860823115549,0,0.5,0.0,0.0,0.0,0
2014-07-07 16:50:00,0.0839276882981,0,0.5,0.0,0.0,0.0,0
2014-07-07 16:55:00,0.0804419691494,0,0.5,0.0,0.0,0.0,0
2014-07-07 17:00:00,0.0,0,0.5,0.0,0.0,0.0,0
2014-07-07 17:05:00,0.0,0,0.5,0.0,0.0,0.0,0
2014-07-07 17:25:00,0.0683151315824,0,0.5,0.0,0.0,0.0,0
2014-07-07 17:30:00,0.0,0,0.5,0.0,0.0,0.0,0
2014-07-07 17:35:00,0.0552304455692,0,0.5,0.0,0.0,0.0,0
2014-07-07 17:45:00,0.0796296461016,0,0.5,0.0,0.0,0.0,0
2014-07-07 17:50:00,0.07249895857,0,0.5,0.0,0.0,0.0,0
2014-07-07 17:55:00,0.0884081704754,0,0.5,0.0,0.0,0.0,0
2014-07-07 18:00:00,0.089040538425,0,0.5,0.0,0.0,0.0,0
2014-07-07 18:05:00,0.0721351143486,0,0.5,0.0,0.0,0.0,0
2014-07-07 18:10:00,0.0860161370345,0,0.5,0.0,0.0,0.0,0
2014-07-07 18:15:00,0.0804293648513,0,0.5,0.0,0.0,0.0,0
2014-07-07 18:20:00,0.073843189479,0,0.5,0.0,0.0,0.0,0
2014-07-07 18:25:00,0.0722819782761,0,0.5,0.0,0.0,0.0,0
2014-07-07 18:30:00,0.0721876041386,0,0.5,0.0,0.0,0.0,0
2014-07-07 18:35:00,0.0753935047405,0,0.5,0.0,0.0,0.0,0
2014-07-07 18:40:00,0.0780580819666,0,0.5,0.0,0.0,0.0,0
2014-07-07 18:45:00,0.0736248438405,0,0.5,0.0,0.0,0.0,0
2014-07-07 18:50:00,0.0728755098815,0,0.5,0.0,0.0,0.0,0
2014-07-07 18:55:00,0.0659017833471,0,0.5,0.0,0.0,0.0,0
2014-07-07 19:00:00,0.0,0,0.5,0.0,0.0,0.0,0
2014-07-07 19:30:00,0.0,0,0.5,0.0,0.0,0.0,0
2014-07-07 20:10:00,0.0,0,0.5,0.0,0.0,0.0,0
2014-07-07 20:15:00,0.084217830727,0,0.5,0.0,0.0,0.0,0
2014-07-07 20:20:00,0.0763539207495,0,0.5,0.0,0.0,0.0,0
2014-07-07 20:25:00,0.0860947884805,0,0.5,0.0,0.0,0.0,0
2014-07-07 20:30:00,0.0950857122048,0,0.5,0.0,0.0,0.0,0
2014-07-07 20:35:00,0.0833699048107,0,0.5,0.0,0.0,0.0,0
2014-07-07 20:40:00,0.0824388459449,0,0.5,0.0,0.0,0.0,0
2014-07-07 20:45:00,0.0751047779348,0,0.5,0.0,0.0,0.0,0
2014-07-07 20:50:00,0.0923457650524,0,0.5,0.0,0.0,0.0,0
2014-07-07 20:55:00,0.0797415484927,0,0.5,0.0,0.0,0.0,0
2014-07-07 21:00:00,0.083123609831,0,0.5,0.0,0.0,0.0,0
2014-07-07 21:05:00,0.133751848619,0,0.5,0.0,0.0,0.0,0
2014-07-07 21:10:00,0.0752106625305,0,0.5,0.0,0.0,0.0,0
2014-07-07 21:15:00,0.0810694935893,0,0.5,0.0,0.0,0.0,0
2014-07-07 21:20:00,0.0751778473337,0,0.5,0.0,0.0,0.0,0
2014-07-07 21:25:00,0.0790067897547,0,0.5,0.0,0.0,0.0,0
2014-07-07 21:30:00,0.0722244449791,0,0.5,0.0,0.0,0.0,0
2014-07-07 21:35:00,0.081639222166,0,0.5,0.0,0.0,0.0,0
2014-07-07 21:40:00,0.0788533963069,0,0.5,0.0,0.0,0.0,0
2014-07-07 21:45:00,0.0743466306876,0,0.5,0.0,0.0,0.0,0
2014-07-07 21:50:00,0.0792910004206,0,0.5,0.0,0.0,0.0,0
2014-07-07 21:55:00,0.0805228563192,0,0.5,0.0,0.0,0.0,0
2014-07-07 22:00:00,0.0759923703516,0,0.5,0.0,0.0,0.0,0
2014-07-07 22:05:00,0.0771716291991,0,0.5,0.0,0.0,0.0,0
2014-07-07 22:10:00,0.0740840867666,0,0.5,0.0,0.0,0.0,0
2014-07-07 22:15:00,0.0800618871596,0,0.5,0.0,0.0,0.0,0
2014-07-07 22:20:00,0.0788119823441,0,0.5,0.0,0.0,0.0,0
2014-07-07 22:25:00,0.0781909147998,0,0.5,0.0,0.0,0.0,0
2014-07-07 22:30:00,0.0711863987393,0,0.5,0.0,0.0,0.0,0
2014-07-07 22:35:00,0.0848357932856,0,0.5,0.0,0.0,0.0,0
2014-07-07 22:40:00,0.0770860627632,0,0.5,0.0,0.0,0.0,0
2014-07-07 22:45:00,0.0820610611306,0,0.5,0.0,0.0,0.0,0
2014-07-07 22:50:00,0.0787949300617,0,0.5,0.0,0.0,0.0,0
2014-07-07 22:55:00,0.253569686444,0,0.5,0.0,0.0,0.0,0
2014-07-07 23:00:00,0.0860582727752,0,0.5,0.0,0.0,0.0,0
2014-07-07 23:05:00,0.0806099981527,0,0.5,0.0,0.0,0.0,0
2014-07-07 23:10:00,0.0784173061391,0,0.5,0.0,0.0,0.0,0
2014-07-07 23:15:00,0.0802062729086,0,0.5,0.0,0.0,0.0,0
2014-07-07 23:20:00,0.0798144558826,0,0.5,0.0,0.0,0.0,0
2014-07-07 23:25:00,0.0733207016017,0,0.5,0.0,0.0,0.0,0
2014-07-07 23:30:00,0.0907720948008,0,0.5,0.0,0.0,0.0,0
2014-07-07 23:35:00,0.104683342775,0,0.5,0.0,0.0,0.0,0
2014-07-07 23:40:00,0.101504016114,0,0.5,0.0,0.0,0.0,0
2014-07-07 23:45:00,0.0969836428579,0,0.5,0.0,0.0,0.0,0
2014-07-07 23:50:00,0.0813283113039,0,0.5,0.0,0.0,0.0,0
2014-07-07 23:55:00,0.0841037998732,0,0.5,0.0,0.0,0.0,0
2014-07-08 00:00:00,0.0,0,0.5,0.0,0.0,0.0,0
2014-07-08 00:05:00,0.0834565952536,0,0.5,0.0,0.0,0.0,0
2014-07-08 00:10:00,0.078355553905,0,0.5,0.0,0.0,0.0,0
2014-07-08 00:20:00,0.0898428671951,0,0.5,0.0,0.0,0.0,0
2014-07-08 00:25:00,0.0757615321454,0,0.5,0.0,0.0,0.0,0
2014-07-08 00:30:00,0.091521845514,0,0.5,0.0,0.0,0.0,0
2014-07-08 00:35:00,0.0,0,0.5,0.0,0.0,0.0,0
2014-07-08 00:40:00,0.125175063405,0,0.5,0.0,0.0,0.0,0
2014-07-08 00:45:00,0.0997348993539,0,0.5,0.0,0.0,0.0,0
2014-07-08 00:50:00,0.0796752890572,0,0.5,0.0,0.0,0.0,0
2014-07-08 00:55:00,0.0821121554089,0,0.5,0.0,0.0,0.0,0
2014-07-08 01:00:00,0.0702921561334,0,0.5,0.0,0.0,0.0,0
2014-07-08 01:05:00,0.0680480715215,0,0.5,0.0,0.0,0.0,0
2014-07-08 01:10:00,0.0623725854592,0,0.5,0.0,0.0,0.0,0
2014-07-08 01:15:00,0.0703032006762,0,0.5,0.0,0.0,0.0,0
2014-07-08 01:20:00,0.0862844440058,0,0.5,0.0,0.0,0.0,0
2014-07-08 01:25:00,0.092895159827,0,0.5,0.0,0.0,0.0,0
2014-07-08 01:30:00,0.0876460154614,0,0.5,0.0,0.0,0.0,0
2014-07-08 01:35:00,0.0785329481442,0,0.5,0.0,0.0,0.0,0
2014-07-08 01:40:00,0.0758094320536,0,0.5,0.0,0.0,0.0,0
2014-07-08 16:20:00,0.0743085809249,0,0.5,0.0,0.0,0.0,0
2014-07-08 16:25:00,0.0813074903576,0,0.5,0.0,0.0,0.0,0
2014-07-08 16:30:00,0.0653569862755,0,0.5,0.0,0.0,0.0,0
2014-07-08 16:35:00,0.063750872889,0,0.5,0.0,0.0,0.0,0
2014-07-08 16:40:00,0.0654804415823,0,0.5,0.0,0.0,0.0,0
2014-07-08 16:45:00,0.0648623550031,0,0.5,0.0,0.0,0.0,0
2014-07-08 16:50:00,0.0575496922889,0,0.5,0.0,0.0,0.0,0
2014-07-08 17:00:00,0.0,0,0.5,0.0,0.0,0.0,0
2014-07-08 17:05:00,0.0,0,0.5,0.0,0.0,0.0,0
2014-07-08 17:20:00,0.0782005750038,0,0.5,0.0,0.0,0.0,0
2014-07-08 17:25:00,0.091447280046,0,0.5,0.0,0.0,0.0,0
2014-07-08 17:30:00,0.0769161466347,0,0.5,0.0,0.0,0.0,0
2014-07-08 17:35:00,0.0728157542683,0,0.5,0.0,0.0,0.0,0
2014-07-08 17:40:00,0.0,0,0.5,0.0,0.0,0.0,0
2014-07-08 17:50:00,0.08337899519,0,0.5,0.0,0.0,0.0,0
2014-07-08 17:55:00,0.0763121302555,0,0.5,0.0,0.0,0.0,0
2014-07-08 18:00:00,0.0730169493017,0,0.5,0.0,0.0,0.0,0
2014-07-08 18:05:00,0.0768329734624,0,0.5,0.0,0.0,0.0,0
2014-07-08 18:10:00,0.0731208417457,0,0.5,0.0,0.0,0.0,0
2014-07-08 18:15:00,0.0825534957848,0,0.5,0.0,0.0,0.0,0
2014-07-08 18:20:00,0.0811699994871,0,0.5,0.0,0.0,0.0,0
2014-07-08 18:25:00,0.0783929668048,0,0.5,0.0,0.0,0.0,0
2014-07-08 18:30:00,0.0876415931751,0,0.5,0.0,0.0,0.0,0
2014-07-08 18:35:00,0.0898727148345,0,0.5,0.0,0.0,0.0,0
2014-07-08 18:40:00,0.0830549146744,0,0.5,0.0,0.0,0.0,0
2014-07-08 18:45:00,0.078654078343,0,0.5,0.0,0.0,0.0,0
2014-07-08 18:50:00,0.0770616820887,0,0.5,0.0,0.0,0.0,0
2014-07-08 18:55:00,0.0762657912199,0,0.5,0.0,0.0,0.0,0
2014-07-08 19:00:00,0.080905889107,0,0.5,0.0,0.0,0.0,0
2014-07-08 19:05:00,0.0,0,0.5,0.0,0.0,0.0,0
2014-07-08 19:10:00,0.093088082347,0,0.5,0.0,0.0,0.0,0
2014-07-08 19:15:00,0.0,0,0.5,0.0,0.0,0.0,0
2014-07-08 19:25:00,0.0,0,0.5,0.0,0.0,0.0,0
2014-07-08 19:35:00,0.0811771781606,0,0.5,0.0,0.0,0.0,0
2014-07-08 19:40:00,0.0790721978051,0,0.5,0.0,0.0,0.0,0
2014-07-08 19:45:00,0.0730268519605,0,0.5,0.0,0.0,0.0,0
2014-07-08 19:50:00,0.0728059018881,0,0.5,0.0,0.0,0.0,0
2014-07-08 19:55:00,0.0805084777435,0,0.5,0.0,0.0,0.0,0
2014-07-08 20:00:00,0.095882171781,0,0.5,0.0,0.0,0.0,0
2014-07-08 20:05:00,0.112922684526,0,0.5,0.0,0.0,0.0,0
2014-07-08 20:10:00,0.114265636123,0,0.5,0.0,0.0,0.0,0
2014-07-08 20:20:00,0.0819791661533,0,0.5,0.0,0.0,0.0,0
2014-07-08 20:25:00,0.0966036212024,0,0.5,0.0,0.0,0.0,0
2014-07-08 20:40:00,0.137360624197,0,0.5,0.0,0.0,0.0,0
2014-07-08 21:05:00,0.724768604343,0,0.5,0.0,0.0,0.0,0
2014-07-08 21:10:00,0.0956260478845,0,0.5,0.0,0.0,0.0,0
2014-07-08 21:15:00,0.0789875162734,0,0.5,0.0,0.0,0.0,0
2014-07-08 21:20:00,0.106826757245,0,0.5,0.0,0.0,0.0,0
2014-07-08 21:55:00,0.0,0,0.5,0.0,0.0,0.0,0
2014-07-08 22:00:00,0.0777998161998,0,0.5,0.0,0.0,0.0,0
2014-07-08 22:05:00,0.0,0,0.5,0.0,0.0,0.0,0
2014-07-08 22:15:00,0.0730021427988,0,0.5,0.0,0.0,0.0,0
2014-07-08 22:20:00,0.0775670461762,0,0.5,0.0,0.0,0.0,0
2014-07-08 22:25:00,0.0997359965457,0,0.5,0.0,0.0,0.0,0
2014-07-08 22:30:00,0.0742532420116,0,0.5,0.0,0.0,0.0,0
2014-07-08 22:35:00,0.0,0,0.5,0.0,0.0,0.0,0
2014-07-08 22:40:00,0.0,0,0.5,0.0,0.0,0.0,0
2014-07-08 22:50:00,0.0812950346608,0,0.5,0.0,0.0,0.0,0
2014-07-08 22:55:00,0.0870715137652,0,0.5,0.0,0.0,0.0,0
2014-07-08 23:00:00,0.0903882877219,0,0.5,0.0,0.0,0.0,0
2014-07-08 23:05:00,0.100758520091,0,0.5,0.0,0.0,0.0,0
2014-07-08 23:10:00,0.107914059799,0,0.5,0.0,0.0,0.0,0
2014-07-08 23:15:00,0.0,0,0.5,0.0,0.0,0.0,0
2014-07-08 23:20:00,0.0,0,0.5,0.0,0.0,0.0,0
2014-07-08 23:25:00,0.0816408902997,0,0.5,0.0,0.0,0.0,0
2014-07-08 23:30:00,0.0840975295673,0,0.5,0.0,0.0,0.0,0
2014-07-08 23:35:00,0.0896080938467,0,0.5,0.0,0.0,0.0,0
2014-07-08 23:40:00,0.0914736796876,0,0.5,0.0,0.0,0.0,0
2014-07-08 23:45:00,0.0743433335257,0,0.5,0.0,0.0,0.0,0
2014-07-08 23:50:00,0.0724751723008,0,0.5,0.0,0.0,0.0,0
2014-07-09 16:20:00,0.0873756213677,0,0.5,0.0,0.0,0.0,0
2014-07-09 16:25:00,0.0946057768223,0,0.5,0.0,0.0,0.0,0
2014-07-09 16:30:00,0.0862681559588,0,0.5,0.0,0.0,0.0,0
2014-07-09 16:35:00,0.0813374553139,0,0.5,0.0,0.0,0.0,0
2014-07-09 16:40:00,0.0691536844416,0,0.5,0.0,0.0,0.0,0
2014-07-09 16:45:00,0.0949698009296,0,0.5,0.0,0.0,0.0,0
2014-07-09 16:50:00,0.0677195430217,0,0.5,0.0,0.0,0.0,0
2014-07-09 16:55:00,0.0651403411726,0,0.5,0.0,0.0,0.0,0
2014-07-09 17:00:00,0.0760425931334,0,0.5,0.0,0.0,0.0,0
2014-07-09 17:05:00,0.0,0,0.5,0.0,0.0,0.0,0
2014-07-09 17:15:00,0.0729998891982,0,0.5,0.0,0.0,0.0,0
2014-07-09 17:20:00,0.0728741869944,0,0.5,0.0,0.0,0.0,0
2014-07-09 17:25:00,0.074416312423,0,0.5,0.0,0.0,0.0,0
2014-07-09 17:30:00,0.0720591578381,0,0.5,0.0,0.0,0.0,0
2014-07-09 17:35:00,0.0712386673033,0,0.5,0.0,0.0,0.0,0
2014-07-09 17:40:00,0.0,0,0.5,0.0,0.0,0.0,0
2014-07-09 17:45:00,0.0872959844602,0,0.5,0.0,0.0,0.0,0
2014-07-09 17:50:00,0.0726642032536,0,0.5,0.0,0.0,0.0,0
2014-07-09 17:55:00,0.0818848635232,0,0.5,0.0,0.0,0.0,0
2014-07-09 18:00:00,0.0880835793522,0,0.5,0.0,0.0,0.0,0
2014-07-09 18:05:00,0.0690730531343,0,0.5,0.0,0.0,0.0,0
2014-07-09 18:10:00,0.0654599547097,0,0.5,0.0,0.0,0.0,0
2014-07-09 18:15:00,0.0805617351209,0,0.5,0.0,0.0,0.0,0
2014-07-09 18:20:00,0.0676345564662,0,0.5,0.0,0.0,0.0,0
2014-07-09 18:25:00,0.0844695345718,0,0.5,0.0,0.0,0.0,0
2014-07-09 18:30:00,0.0741969355136,0,0.5,0.0,0.0,0.0,0
2014-07-09 18:35:00,0.0747927777021,0,0.5,0.0,0.0,0.0,0
2014-07-09 18:40:00,0.075554998637,0,0.5,0.0,0.0,0.0,0
2014-07-09 18:45:00,0.0725612046522,0,0.5,0.0,0.0,0.0,0
2014-07-09 18:50:00,0.0827974455449,0,0.5,0.0,0.0,0.0,0
2014-07-09 18:55:00,0.0,0,0.5,0.0,0.0,0.0,0
2014-07-09 19:25:00,0.0,0,0.5,0.0,0.0,0.0,0
2014-07-09 19:45:00,0.0858686474171,0,0.5,0.0,0.0,0.0,0
2014-07-09 19:50:00,0.0840220412069,0,0.5,0.0,0.0,0.0,0
2014-07-09 19:55:00,0.080739010926,0,0.5,0.0,0.0,0.0,0
2014-07-09 20:00:00,0.0812024236279,0,0.5,0.0,0.0,0.0,0
2014-07-09 20:05:00,0.0,0,0.5,0.0,0.0,0.0,0
2014-07-09 20:10:00,0.0828209413152,0,0.5,0.0,0.0,0.0,0
2014-07-09 20:15:00,0.0795553800709,0,0.5,0.0,0.0,0.0,0
2014-07-09 20:20:00,0.0855933271333,0,0.5,0.0,0.0,0.0,0
2014-07-09 20:25:00,0.0,0,0.5,0.0,0.0,0.0,0
2014-07-09 20:30:00,0.0,0,0.5,0.0,0.0,0.0,0
2014-07-09 20:40:00,0.0810499631283,0,0.5,0.0,0.0,0.0,0
2014-07-09 20:45:00,0.0,0,0.5,0.0,0.0,0.0,0
2014-07-09 20:50:00,0.0,0,0.5,0.0,0.0,0.0,0
2014-07-09 21:00:00,0.081104780261,0,0.5,0.0,0.0,0.0,0
2014-07-09 21:05:00,0.081611476174,0,0.5,0.0,0.0,0.0,0
2014-07-09 21:10:00,0.0798633379004,0,0.5,0.0,0.0,0.0,0
2014-07-09 21:15:00,0.0773817313741,0,0.5,0.0,0.0,0.0,0
2014-07-09 21:20:00,0.0828118844549,0,0.5,0.0,0.0,0.0,0
2014-07-09 21:25:00,0.0934710760291,0,0.5,0.0,0.0,0.0,0
2014-07-09 21:30:00,0.111742606695,0,0.5,0.0,0.0,0.0,0
2014-07-09 21:35:00,0.0912573072066,0,0.5,0.0,0.0,0.0,0
2014-07-09 21:40:00,0.0771595779661,0,0.5,0.0,0.0,0.0,0
2014-07-09 21:45:00,0.0856321623601,0,0.5,0.0,0.0,0.0,0
2014-07-09 21:50:00,0.0729197673811,0,0.5,0.0,0.0,0.0,0
2014-07-09 21:55:00,0.0687320488262,0,0.5,0.0,0.0,0.0,0
2014-07-09 22:00:00,0.0717817783643,0,0.5,0.0,0.0,0.0,0
2014-07-09 22:05:00,0.0753242107093,0,0.5,0.0,0.0,0.0,0
2014-07-09 22:10:00,0.0728201095164,0,0.5,0.0,0.0,0.0,0
2014-07-09 22:15:00,0.071487176778,0,0.5,0.0,0.0,0.0,0
2014-07-09 22:20:00,0.0790845473581,0,0.5,0.0,0.0,0.0,0
2014-07-09 22:25:00,0.0792378737677,0,0.5,0.0,0.0,0.0,0
2014-07-09 22:30:00,0.0813036345441,0,0.5,0.0,0.0,0.0,0
2014-07-09 22:35:00,0.0740562949652,0,0.5,0.0,0.0,0.0,0
2014-07-09 22:40:00,0.0762920053891,0,0.5,0.0,0.0,0.0,0
2014-07-09 22:45:00,0.0812636071546,0,0.5,0.0,0.0,0.0,0
2014-07-09 22:50:00,0.593940089214,0,0.5,0.0,0.0,0.0,0
2014-07-09 22:55:00,0.0,0,0.5,0.0,0.0,0.0,0
2014-07-10 20:05:00,0.0755136114895,0,0.5,0.0,0.0,0.0,0
2014-07-10 20:10:00,0.077481404881,0,0.5,0.0,0.0,0.0,0
2014-07-10 20:15:00,0.077997127487,0,0.5,0.0,0.0,0.0,0
2014-07-10 20:20:00,0.0715346900993,0,0.5,0.0,0.0,0.0,0
2014-07-10 20:25:00,0.0669197684068,0,0.5,0.0,0.0,0.0,0
2014-07-10 20:30:00,0.0,0,0.5,0.0,0.0,0.0,0
2014-07-10 20:35:00,0.0590933517749,0,0.5,0.0,0.0,0.0,0
2014-07-10 20:40:00,0.0782073235155,0,0.5,0.0,0.0,0.0,0
2014-07-10 20:45:00,0.101473149494,0,0.5,0.0,0.0,0.0,0
2014-07-10 20:50:00,0.103191088177,0,0.5,0.0,0.0,0.0,0
2014-07-10 20:55:00,0.0818138521969,0,0.5,0.0,0.0,0.0,0
2014-07-10 21:00:00,0.0830027511369,0,0.5,0.0,0.0,0.0,0
2014-07-10 21:05:00,0.0895457181574,0,0.5,0.0,0.0,0.0,0
2014-07-10 21:10:00,0.107765905387,0,0.5,0.0,0.0,0.0,0
2014-07-10 21:15:00,0.0921738020243,0,0.5,0.0,0.0,0.0,0
2014-07-10 21:20:00,0.0705625167081,0,0.5,0.0,0.0,0.0,0
2014-07-10 21:25:00,0.0702183325549,0,0.5,0.0,0.0,0.0,0
2014-07-10 21:30:00,0.0749690758668,0,0.5,0.0,0.0,0.0,0
2014-07-10 21:35:00,0.0782566680969,0,0.5,0.0,0.0,0.0,0
2014-07-10 21:40:00,0.169379472102,0,0.5,0.0,0.0,0.0,0
2014-07-10 21:45:00,0.0840469660081,0,0.5,0.0,0.0,0.0,0
2014-07-10 21:50:00,0.0783753268208,0,0.5,0.0,0.0,0.0,0
2014-07-10 21:55:00,0.078039241999,0,0.5,0.0,0.0,0.0,0
2014-07-10 22:00:00,0.0,0,0.5,0.0,0.0,0.0,0
2014-07-10 22:05:00,0.0749423131018,0,0.5,0.0,0.0,0.0,0
2014-07-10 22:10:00,0.0774965756247,0,0.5,0.0,0.0,0.0,0
2014-07-10 22:15:00,0.0772531185954,0,0.5,0.0,0.0,0.0,0
2014-07-10 22:20:00,0.0784501816703,0,0.5,0.0,0.0,0.0,0
2014-07-10 22:25:00,0.084971614905,0,0.5,0.0,0.0,0.0,0
2014-07-10 22:30:00,0.0969498243227,0,0.5,0.0,0.0,0.0,0
2014-07-10 22:35:00,0.0806794508409,0,0.5,0.0,0.0,0.0,0
2014-07-10 22:45:00,0.0704466680018,0,0.5,0.0,0.0,0.0,0
2014-07-10 22:50:00,0.0818719620224,0,0.5,0.0,0.0,0.0,0
2014-07-10 22:55:00,0.0843959936709,0,0.5,0.0,0.0,0.0,0
2014-07-10 23:00:00,0.0800994363704,0,0.5,0.0,0.0,0.0,0
2014-07-10 23:05:00,0.0787026598062,0,0.5,0.0,0.0,0.0,0
2014-07-10 23:10:00,0.071022595377,0,0.5,0.0,0.0,0.0,0
2014-07-10 23:15:00,0.0668698919891,0,0.5,0.0,0.0,0.0,0
2014-07-10 23:20:00,0.0688197303171,0,0.5,0.0,0.0,0.0,0
2014-07-10 23:25:00,0.0746937689906,0,0.5,0.0,0.0,0.0,0
2014-07-10 23:30:00,0.0703622345115,0,0.5,0.0,0.0,0.0,0
2014-07-10 23:35:00,0.0721867706304,0,0.5,0.0,0.0,0.0,0
2014-07-10 23:40:00,0.0681926963734,0,0.5,0.0,0.0,0.0,0
2014-07-10 23:45:00,0.0708345007244,0,0.5,0.0,0.0,0.0,0
2014-07-10 23:50:00,0.0667836864557,0,0.5,0.0,0.0,0.0,0
2014-07-10 23:55:00,0.076953664561,0,0.5,0.0,0.0,0.0,0
2014-07-11 00:00:00,0.0926468291208,0,0.5,0.0,0.0,0.0,0
2014-07-11 00:05:00,0.0959199533908,0,0.5,0.0,0.0,0.0,0
2014-07-11 00:10:00,0.0,0,0.5,0.0,0.0,0.0,0
2014-07-11 00:15:00,0.0,0,0.5,0.0,0.0,0.0,0
2014-07-11 00:35:00,0.130918259162,0,0.5,0.0,0.0,0.0,0
2014-07-11 00:40:00,0.0648339464503,0,0.5,0.0,0.0,0.0,0
2014-07-11 00:45:00,0.0,0,0.5,0.0,0.0,0.0,0
2014-07-11 01:20:00,0.0,0,0.5,0.0,0.0,0.0,0
2014-07-11 01:30:00,0.122978988197,0,0.5,0.0,0.0,0.0,0
2014-07-11 01:35:00,0.127353084109,0,0.5,0.0,0.0,0.0,0
2014-07-11 01:40:00,0.0,0,0.5,0.0,0.0,0.0,0
2014-07-11 01:45:00,0.0,0,0.5,0.0,0.0,0.0,0
2014-07-11 01:50:00,0.0,0,0.5,0.0,0.0,0.0,0
2014-07-11 01:55:00,0.0,0,0.5,0.0,0.0,0.0,0
2014-07-11 02:00:00,0.0,0,0.5,0.0,0.0,0.0,0
2014-07-11 02:05:00,0.0,0,0.5,0.0,0.0,0.0,0
2014-07-11 02:10:00,0.0,0,0.5,0.0,0.0,0.0,0
2014-07-11 02:15:00,0.0,0,0.5,0.0,0.0,0.0,0
2014-07-11 02:20:00,0.0,0,0.5,0.0,0.0,0.0,0
2014-07-11 02:25:00,0.0,0,0.5,0.0,0.0,0.0,0
2014-07-11 02:30:00,0.0,0,0.5,0.0,0.0,0.0,0
2014-07-11 02:35:00,0.0,0,0.5,0.0,0.0,0.0,0
2014-07-11 02:40:00,0.0,0,0.5,0.0,0.0,0.0,0
2014-07-11 02:45:00,0.0,0,0.5,0.0,0.0,0.0,0
2014-07-11 02:50:00,0.0,0,0.5,0.0,0.0,0.0,0
2014-07-11 02:55:00,0.0,0,0.5,0.0,0.0,0.0,0
2014-07-11 03:00:00,0.0,0,0.5,0.0,0.0,0.0,0
2014-07-11 03:05:00,0.0,0,0.5,0.0,0.0,0.0,0
2014-07-11 03:10:00,0.0,0,0.5,0.0,0.0,0.0,0
2014-07-11 03:15:00,0.0,0,0.5,0.0,0.0,0.0,0
2014-07-11 03:20:00,0.0,0,0.5,0.0,0.0,0.0,0
2014-07-11 03:25:00,0.0,0,0.5,0.0,0.0,0.0,0
2014-07-11 03:35:00,0.0,0,0.5,0.0,0.0,0.0,0
2014-07-11 03:40:00,0.0,0,0.5,0.0,0.0,0.0,0
2014-07-11 03:45:00,0.0,0,0.5,0.0,0.0,0.0,0
2014-07-11 03:50:00,0.0,0,0.5,0.0,0.0,0.0,0
2014-07-11 07:30:00,0.0356754597052,0,0.5,0.0,0.0,0.0,0
2014-07-11 07:35:00,0.0,0,0.5,0.0,0.0,0.0,0
2014-07-11 07:40:00,0.0,0,0.5,0.0,0.0,0.0,0
2014-07-11 07:45:00,0.0,0,0.5,0.0,0.0,0.0,0
2014-07-11 07:50:00,0.0,0,0.5,0.0,0.0,0.0,0
2014-07-11 07:55:00,0.0,0,0.5,0.0,0.0,0.0,0
2014-07-11 08:00:00,0.0,0,0.5,0.0,0.0,0.0,0
2014-07-11 08:05:00,0.0,0,0.5,0.0,0.0,0.0,0
2014-07-11 08:10:00,0.0,0,0.5,0.0,0.0,0.0,0
2014-07-11 08:15:00,0.0,0,0.5,0.0,0.0,0.0,0
2014-07-11 08:20:00,0.0,0,0.5,0.0,0.0,0.0,0
2014-07-11 08:25:00,0.0,0,0.5,0.0,0.0,0.0,0
2014-07-11 08:35:00,0.0,0,0.5,0.0,0.0,0.0,0
2014-07-11 08:40:00,0.0,0,0.5,0.0,0.0,0.0,0
2014-07-11 08:45:00,0.0,0,0.5,0.0,0.0,0.0,0
2014-07-11 08:50:00,0.0,0,0.5,0.0,0.0,0.0,0
2014-07-11 08:55:00,0.0,0,0.5,0.0,0.0,0.0,0
2014-07-11 09:00:00,0.0,0,0.5,0.0,0.0,0.0,0
2014-07-11 09:05:00,0.0,0,0.5,0.0,0.0,0.0,0
2014-07-11 09:10:00,0.0,0,0.5,0.0,0.0,0.0,0
2014-07-11 09:15:00,0.0,0,0.5,0.0,0.0,0.0,0
2014-07-11 09:20:00,0.0,0,0.5,0.0,0.0,0.0,0
2014-07-11 09:25:00,0.0,0,0.5,0.0,0.0,0.0,0
2014-07-11 09:30:00,0.0,0,0.5,0.0,0.0,0.0,0
2014-07-11 09:35:00,0.0,0,0.5,0.0,0.0,0.0,0
2014-07-11 09:40:00,0.0,0,0.5,0.0,0.0,0.0,0
2014-07-11 09:45:00,0.0,0,0.5,0.0,0.0,0.0,0
2014-07-11 09:50:00,0.0,0,0.5,0.0,0.0,0.0,0
2014-07-11 09:55:00,0.0,0,0.5,0.0,0.0,0.0,0
2014-07-11 10:00:00,0.0,0,0.5,0.0,0.0,0.0,0
2014-07-11 10:05:00,0.0,0,0.5,0.0,0.0,0.0,0
2014-07-11 10:10:00,0.0,0,0.5,0.0,0.0,0.0,0
2014-07-11 10:15:00,0.0,0,0.5,0.0,0.0,0.0,0
2014-07-11 10:20:00,0.0,0,0.5,0.0,0.0,0.0,0
2014-07-11 10:30:00,0.0,0,0.5,0.0,0.0,0.0,0
2014-07-11 10:35:00,0.0,0,0.5,0.0,0.0,0.0,0
2014-07-11 10:40:00,0.0,0,0.5,0.0,0.0,0.0,0
2014-07-11 10:45:00,0.0,0,0.5,0.0,0.0,0.0,0
2014-07-11 10:50:00,0.0,0,0.5,0.0,0.0,0.0,0
2014-07-11 10:55:00,0.0,0,0.5,0.0,0.0,0.0,0
2014-07-11 11:00:00,0.0,0,0.5,0.0,0.0,0.0,0
2014-07-11 11:05:00,0.0,0,0.5,0.0,0.0,0.0,0
2014-07-11 11:10:00,0.0,0,0.5,0.0,0.0,0.0,0
2014-07-11 11:15:00,0.0,0,0.5,0.0,0.0,0.0,0
2014-07-11 11:20:00,0.0,0,0.5,0.0,0.0,0.0,0
2014-07-11 11:25:00,0.0,0,0.5,0.0,0.0,0.0,0
2014-07-11 11:30:00,0.0,0,0.5,0.0,0.0,0.0,0
2014-07-11 11:35:00,0.0,0,0.5,0.0,0.0,0.0,0
2014-07-11 11:40:00,0.0,0,0.5,0.0,0.0,0.0,0
2014-07-11 11:45:00,0.0,0,0.5,0.0,0.0,0.0,0
2014-07-11 11:50:00,0.0,0,0.5,0.0,0.0,0.0,0
2014-07-11 11:55:00,0.0,0,0.5,0.0,0.0,0.0,0
2014-07-11 12:00:00,0.0,0,0.5,0.0,0.0,0.0,0
2014-07-11 12:05:00,0.0,0,0.5,0.0,0.0,0.0,0
2014-07-11 12:10:00,0.0,0,0.5,0.0,0.0,0.0,0
2014-07-11 12:15:00,0.0,0,0.5,0.0,0.0,0.0,0
2014-07-11 12:20:00,0.0,0,0.5,0.0,0.0,0.0,0
2014-07-11 12:25:00,0.0,0,0.5,0.0,0.0,0.0,0
2014-07-11 12:30:00,0.0,0,0.5,0.0,0.0,0.0,0
2014-07-11 12:35:00,0.0,0,0.885159218053,0.0,0.0,0.0,0
2014-07-11 12:45:00,0.0,0,0.885159218053,0.0,0.0,0.0,0
2014-07-11 12:50:00,0.0,0,0.885159218053,0.0,0.0,0.0,0
2014-07-11 12:55:00,0.0,0,0.885159218053,0.0,0.0,0.0,0
2014-07-11 13:00:00,0.0,0,0.885159218053,0.0,0.0,0.0,0
2014-07-11 13:05:00,0.0,0,0.885159218053,0.0,0.0,0.0,0
2014-07-11 13:10:00,0.0,0,0.885159218053,0.0,0.0,0.0,0
2014-07-11 13:15:00,0.0,0,0.885159218053,0.0,0.0,0.0,0
2014-07-11 13:20:00,0.0,0,0.885159218053,0.0,0.0,0.0,0
2014-07-11 13:25:00,0.0,0,0.885159218053,0.0,0.0,0.0,0
2014-07-11 13:30:00,0.0,0,0.885159218053,0.0,0.0,0.0,0
2014-07-11 13:35:00,0.0,0,0.885159218053,0.0,0.0,0.0,0
2014-07-11 13:40:00,0.0,0,0.894658605463,0.0,0.0,0.0,0
2014-07-11 13:45:00,0.0,0,0.894658605463,0.0,0.0,0.0,0
2014-07-11 13:50:00,0.0,0,0.894658605463,0.0,0.0,0.0,0
2014-07-11 13:55:00,0.0,0,0.894658605463,0.0,0.0,0.0,0
2014-07-11 14:00:00,0.0,0,0.894658605463,0.0,0.0,0.0,0
2014-07-11 14:05:00,0.0,0,0.894658605463,0.0,0.0,0.0,0
2014-07-11 14:10:00,0.0,0,0.894658605463,0.0,0.0,0.0,0
2014-07-11 14:15:00,0.0,0,0.894658605463,0.0,0.0,0.0,0
2014-07-11 14:20:00,0.0,0,0.894658605463,0.0,0.0,0.0,0
2014-07-11 14:25:00,0.0,0,0.894658605463,0.0,0.0,0.0,0
2014-07-11 14:30:00,0.0,0,0.894658605463,0.0,0.0,0.0,0
2014-07-11 14:35:00,0.0,0,0.894658605463,0.0,0.0,0.0,0
2014-07-11 14:45:00,0.0,0,0.894658605463,0.0,0.0,0.0,0
2014-07-11 14:50:00,0.0,0,0.894658605463,0.0,0.0,0.0,0
2014-07-11 14:55:00,0.0,0,0.894658605463,0.0,0.0,0.0,0
2014-07-11 15:00:00,0.0,0,0.894658605463,0.0,0.0,0.0,0
2014-07-11 15:05:00,0.0,0,0.894658605463,0.0,0.0,0.0,0
2014-07-11 15:10:00,0.0,0,0.894658605463,0.0,0.0,0.0,0
2014-07-11 15:15:00,0.0,0,0.894658605463,0.0,0.0,0.0,0
2014-07-11 15:20:00,0.0,0,0.894658605463,0.0,0.0,0.0,0
2014-07-11 16:10:00,0.110201430974,0,0.785789534779,0.0,0.0,0.0,0
2014-07-11 16:15:00,0.092427638801,0,0.657724501105,0.0,0.0,0.0,0
2014-07-11 16:20:00,0.0952285795386,0,0.503565910404,0.0,0.0,0.0,0
2014-07-11 16:25:00,0.0762711766217,0,0.621448671385,0.0,0.0,0.0,0
2014-07-11 16:30:00,0.0924422341336,0,0.7564674985,0.0,0.0,0.0,0
2014-07-11 16:35:00,0.0816604933855,0,0.849828154384,0.0,0.0,0.0,0
2014-07-11 16:40:00,0.0714934873069,0,0.90889626136,0.0,0.0,0.0,0
2014-07-11 16:45:00,0.0846240933669,0,0.954204678726,0.0,0.0,0.0,0
2014-07-11 16:50:00,0.0780719789846,0,0.977932471317,0.0,0.0,0.0,0
2014-07-11 16:55:00,0.0778568187777,0,0.99029723962,0.0,0.0,0.0,0
2014-07-11 17:00:00,0.0816529728172,0,0.986740817388,0.0,0.0,0.0,0
2014-07-11 17:05:00,0.0,0,0.96659122397,0.0,0.0,0.0,0
2014-07-11 17:15:00,0.999849667963,0,0.999999989722,-0.22,-0.11,-0.11,1
2014-07-11 17:20:00,0.0998232400538,0,0.999,0.0,0.0,0.0,0
2014-07-11 17:25:00,0.0730107616762,0,0.999,0.0,0.0,0.0,0
2014-07-11 17:30:00,0.0757835932983,0,0.999,0.0,0.0,0.0,0
2014-07-11 17:35:00,0.0,0,0.999,0.0,0.0,0.0,0
2014-07-11 18:10:00,0.084829424657,0,0.999,0.0,0.0,0.0,0
2014-07-11 18:15:00,0.0714321171905,0,0.999,0.0,0.0,0.0,0
2014-07-11 18:20:00,0.10009783856,0,0.999,0.0,0.0,0.0,0
2014-07-11 18:25:00,0.0959663650511,0,0.999,0.0,0.0,0.0,0
2014-07-11 18:30:00,0.0754566781843,0,0.999,0.0,0.0,0.0,0
2014-07-11 18:35:00,0.0784165620151,0,0.971127676003,0.0,0.0,0.0,0
2014-07-11 18:40:00,0.0775734371509,0,0.964446897396,0.0,0.0,0.0,0
2014-07-11 18:45:00,0.0818132957799,0,0.967227699572,0.0,0.0,0.0,0
2014-07-11 18:50:00,0.0739851462106,0,0.966674616842,0.0,0.0,0.0,0
2014-07-11 18:55:00,0.069744283126,0,0.983207354974,0.0,0.0,0.0,0
2014-07-11 19:00:00,0.0789227719012,0,0.982151913999,0.0,0.0,0.0,0
2014-07-11 19:05:00,0.0770008728585,0,0.983148450197,0.0,0.0,0.0,0
2014-07-11 19:10:00,0.0715581590544,0,0.977493337738,0.0,0.0,0.0,0
2014-07-11 19:15:00,0.0778085859131,0,0.973120302481,0.0,0.0,0.0,0
2014-07-11 19:20:00,0.0792608444055,0,0.97409098012,0.0,0.0,0.0,0
2014-07-11 19:25:00,0.0778867401592,0,0.973957573429,0.0,0.0,0.0,0
2014-07-11 19:30:00,0.0766451771298,0,0.973722456797,0.0,0.0,0.0,0
2014-07-11 19:35:00,0.0,0,0.944890450617,0.0,0.0,0.0,0
2014-07-11 20:10:00,0.0,0,0.901217644585,0.0,0.0,0.0,0
2014-07-11 20:20:00,0.071099994326,0,0.90219790686,0.0,0.0,0.0,0
2014-07-11 20:25:00,0.0717633719103,0,0.896939914946,0.0,0.0,0.0,0
2014-07-11 20:30:00,0.0790767418775,0,0.898485173528,0.0,0.0,0.0,0
2014-07-11 20:35:00,0.0760166739322,0,0.901746871482,0.0,0.0,0.0,0
2014-07-11 20:40:00,0.0803198892429,0,0.903549918248,0.0,0.0,0.0,0
2014-07-11 20:45:00,0.0741567293556,0,0.899859527317,0.0,0.0,0.0,0
2014-07-11 20:50:00,0.082337599275,0,0.903083254984,0.0,0.0,0.0,0
2014-07-11 20:55:00,0.0830571760962,0,0.907592516057,0.0,0.0,0.0,0
2014-07-11 21:00:00,0.0910074625545,0,0.955975955061,0.0,0.0,0.0,0
2014-07-11 21:05:00,0.0896377470754,0,0.981227176846,0.0,0.0,0.0,0
2014-07-11 21:10:00,0.0847656657462,0,0.983692789644,0.0,0.0,0.0,0
2014-07-11 21:15:00,0.0923440958013,0,0.986880869202,0.0,0.0,0.0,0
2014-07-11 21:20:00,0.0750286918171,0,0.986300202996,0.0,0.0,0.0,0
2014-07-11 21:25:00,0.0795863807673,0,0.986813381097,0.0,0.0,0.0,0
2014-07-11 21:30:00,0.0721189134512,0,0.985608807262,0.0,0.0,0.0,0
2014-07-11 21:35:00,0.0654991966349,0,0.984235536747,0.0,0.0,0.0,0
2014-07-11 21:40:00,0.0687670114799,0,0.981857173456,0.0,0.0,0.0,0
2014-07-11 21:45:00,0.0700658575303,0,0.97930033342,0.0,0.0,0.0,0
2014-07-11 21:50:00,0.0854553569397,0,0.978117947233,0.0,0.0,0.0,0
2014-07-11 21:55:00,0.0745566501822,0,0.974615092665,0.0,0.0,0.0,0
2014-07-11 22:00:00,0.0786806008879,0,0.973074399908,0.0,0.0,0.0,0
2014-07-11 22:05:00,0.098224633828,0,0.974564533903,0.0,0.0,0.0,0
2014-07-11 22:10:00,0.0,0,0.949447983188,0.0,0.0,0.0,0
2014-07-11 22:15:00,0.0734472350791,0,0.946726560736,0.0,0.0,0.0,0
2014-07-11 22:20:00,0.0788014204764,0,0.949683415687,0.0,0.0,0.0,0
2014-07-11 22:25:00,0.0797867668731,0,0.955566404971,0.0,0.0,0.0,0
2014-07-11 22:30:00,0.0,0,0.921390541585,0.0,0.0,0.0,0
2014-07-11 22:35:00,0.0794898457653,0,0.927000070016,0.0,0.0,0.0,0
2014-07-11 22:40:00,0.0799780301978,0,0.923778273314,0.0,0.0,0.0,0
2014-07-11 22:45:00,0.0914462007311,0,0.933376788188,0.0,0.0,0.0,0
2014-07-11 22:50:00,0.0870714601347,0,0.937783679715,0.0,0.0,0.0,0
2014-07-11 22:55:00,0.0871243108137,0,0.931903314298,0.0,0.0,0.0,0
2014-07-11 23:00:00,0.0962773116669,0,0.970742201053,0.0,0.0,0.0,0
2014-07-11 23:05:00,0.0928979150968,0,0.975750472964,0.0,0.0,0.0,0
2014-07-11 23:10:00,0.0657058318179,0,0.972465449026,0.0,0.0,0.0,0
2014-07-11 23:15:00,0.0916232597794,0,0.975449639669,0.0,0.0,0.0,0
2014-07-11 23:20:00,0.087581948175,0,0.990179449421,0.0,0.0,0.0,0
2014-07-11 23:25:00,0.080853359094,0,0.990327707823,0.0,0.0,0.0,0
2014-07-11 23:30:00,0.0841168544445,0,0.990765819526,0.0,0.0,0.0,0
2014-07-11 23:35:00,0.0852937088554,0,0.990108060265,0.0,0.0,0.0,0
2014-07-11 23:40:00,0.0777190485815,0,0.989029870356,0.0,0.0,0.0,0
2014-07-11 23:45:00,0.0883292240614,0,0.989174283074,0.0,0.0,0.0,0
2014-07-11 23:50:00,0.0723750339958,0,0.985979071247,0.0,0.0,0.0,0
2014-07-11 23:55:00,0.0,0,0.964782442529,0.0,0.0,0.0,0
2014-07-12 00:00:00,0.0727591248697,0,0.7976284677,0.0,0.0,0.0,0
2014-07-12 00:05:00,0.0906625912598,0,0.797012992247,0.0,0.0,0.0,0
2014-07-12 00:10:00,0.0776455803053,0,0.790581694518,0.0,0.0,0.0,0
2014-07-12 00:15:00,0.0796879905607,0,0.789819634812,0.0,0.0,0.0,0
2014-07-12 00:20:00,0.0913385373886,0,0.794515790731,0.0,0.0,0.0,0
2014-07-12 00:25:00,0.090442103751,0,0.797825349578,0.0,0.0,0.0,0
2014-07-12 00:30:00,0.0486587068723,0,0.778728027674,0.0,0.0,0.0,0
2014-07-12 00:35:00,0.0795402361425,0,0.772755217027,0.0,0.0,0.0,0
2014-07-12 00:40:00,0.0854919486216,0,0.781635884114,0.0,0.0,0.0,0
2014-07-12 00:45:00,0.0807054259072,0,0.831711754527,0.0,0.0,0.0,0
2014-07-12 00:50:00,0.0846622168716,0,0.838417467755,0.0,0.0,0.0,0
2014-07-12 00:55:00,0.081002177185,0,0.832988685382,0.0,0.0,0.0,0
2014-07-12 01:00:00,0.0882055430593,0,0.838917058519,0.0,0.0,0.0,0
2014-07-12 01:05:00,0.0737789367202,0,0.835616838033,0.0,0.0,0.0,0
2014-07-12 01:10:00,0.0803116781812,0,0.829341955622,0.0,0.0,0.0,0
2014-07-12 01:15:00,0.0725353793045,0,0.818829991303,0.0,0.0,0.0,0
2014-07-12 01:20:00,0.0808913920971,0,0.837464761729,0.0,0.0,0.0,0
2014-07-12 01:25:00,0.0687845386162,0,0.831390206104,0.0,0.0,0.0,0
2014-07-12 01:30:00,0.0839416970464,0,0.830502779752,0.0,0.0,0.0,0
2014-07-12 18:10:00,0.0808425313081,0,0.830581384992,0.0,0.0,0.0,0
2014-07-12 18:15:00,0.0825697391396,0,0.829379180043,0.0,0.0,0.0,0
2014-07-12 18:20:00,0.0721851147869,0,0.824253650298,0.0,0.0,0.0,0
2014-07-12 18:25:00,0.0706692370467,0,0.813772982633,0.0,0.0,0.0,0
2014-07-12 18:30:00,0.0891867174456,0,0.823001829117,0.0,0.0,0.0,0
2014-07-12 18:35:00,0.0,0,0.771724405582,0.0,0.0,0.0,0
2014-07-14 16:10:00,0.0739013250025,0,0.772660981561,0.0,0.0,0.0,0
2014-07-14 16:15:00,0.0923825388548,0,0.780453766184,0.0,0.0,0.0,0
2014-07-14 16:20:00,0.135292137201,0,0.822443083789,0.0,0.0,0.0,0
2014-07-14 16:25:00,0.0874196386471,0,0.824489693625,0.0,0.0,0.0,0
2014-07-14 16:30:00,0.133159186275,0,0.853458747077,0.0,0.0,0.0,0
2014-07-14 16:35:00,0.0925890287883,0,0.858617741034,0.0,0.0,0.0,0
2014-07-14 16:40:00,0.0865619877231,0,0.865803073528,0.0,0.0,0.0,0
2014-07-14 16:45:00,0.0858683814989,0,0.873122207872,0.0,0.0,0.0,0
2014-07-14 16:50:00,0.0750984238311,0,0.866347628509,0.0,0.0,0.0,0
2014-07-14 16:55:00,0.0,0,0.866347628509,0.0,0.0,0.0,0
2014-07-14 17:00:00,0.0,0,0.826779797093,0.0,0.0,0.0,0
2014-07-14 17:05:00,0.0740153871408,0,0.815891470851,0.0,0.0,0.0,0
2014-07-14 17:10:00,0.0854134279001,0,0.784236363782,0.0,0.0,0.0,0
2014-07-14 17:15:00,0.0930361668508,0,0.787950974037,0.0,0.0,0.0,0
2014-07-14 17:20:00,0.0945635405243,0,0.761677792825,0.0,0.0,0.0,0
2014-07-14 17:25:00,0.078277263348,0,0.751500323489,0.0,0.0,0.0,0
2014-07-14 17:30:00,0.0,0,0.685345997621,0.0,0.0,0.0,0