timestamp,value,is_anomaly,anomaly_score
2014-03-07 03:41:00,0.30116254713,0,0.5
2014-03-07 03:46:00,0.323916003351,0,0.5
2014-03-07 03:51:00,0.258116883117,0,0.5
2014-03-07 03:56:00,0.303283410138,0,0.5
2014-03-07 04:01:00,0.289694176791,0,0.5
2014-03-07 04:06:00,0.292914746544,0,0.5
2014-03-07 04:11:00,0.299643904483,0,0.5
2014-03-07 04:16:00,0.309122329284,0,0.5
2014-03-07 04:21:00,0.260368663594,0,0.5
2014-03-07 04:26:00,0.304932970256,0,0.5
2014-03-07 04:31:00,0.268197528278,0,0.5
2014-03-07 04:36:00,0.306713447842,0,0.5
2014-03-07 04:41:00,0.269218684541,0,0.5
2014-03-07 04:46:00,0.307001466276,0,0.5
2014-03-07 04:51:00,0.272622538752,0,0.5
2014-03-07 04:56:00,0.295035609552,0,0.5
2014-03-07 05:01:00,0.301031629661,0,0.5
2014-03-07 05:06:00,0.265422077922,0,0.5
2014-03-07 05:11:00,0.303204859656,0,0.5
2014-03-07 05:16:00,0.309462714705,0,0.5
2014-03-07 05:21:00,0.258457268538,0,0.5
2014-03-07 05:26:00,0.295952031839,0,0.5
2014-03-07 05:31:00,0.259059488898,0,0.5
2014-03-07 05:36:00,0.309174696271,0,0.5
2014-03-07 05:41:00,0.295952031839,0,0.5
2014-03-07 05:46:00,0.288254084625,0,0.5
2014-03-07 05:51:00,0.257095726854,0,0.5
2014-03-07 05:56:00,0.304252199413,0,0.5
2014-03-07 06:01:00,0.275188521156,0,0.5
2014-03-07 06:06:00,0.275974025974,0,0.5
2014-03-07 06:11:00,0.303623795559,0,0.5
2014-03-07 06:16:00,0.298413280268,0,0.5
2014-03-07 06:21:00,0.272282153331,0,0.5
2014-03-07 06:26:00,0.277675953079,0,0.5
2014-03-07 06:31:00,0.262437159615,0,0.5
2014-03-07 06:36:00,0.280896522832,0,0.5
2014-03-07 06:41:00,0.286107038123,0,0.5
2014-03-07 06:46:00,0.298413280268,0,0.5
2014-03-07 06:51:00,0.258771470465,0,0.5
2014-03-07 06:56:00,0.309148512778,0,0.5
2014-03-07 07:01:00,0.308546292417,0,0.5
2014-03-07 07:06:00,0.247460201089,0,0.5
2014-03-07 07:11:00,0.316087138668,0,0.5
2014-03-07 07:16:00,0.289091956431,0,0.5
2014-03-07 07:21:00,0.251989945538,0,0.5
2014-03-07 07:26:00,0.27474340176,0,0.5
2014-03-07 07:31:00,0.273826979472,0,0.5
2014-03-07 07:36:00,0.304330749895,0,0.5
2014-03-07 07:41:00,0.272282153331,0,0.5
2014-03-07 07:46:00,0.313468789275,0,0.5
2014-03-07 07:51:00,0.232011939673,0,0.5
2014-03-07 07:56:00,0.301188730624,0,0.5
2014-03-07 08:01:00,0.271706116464,0,0.5
2014-03-07 08:06:00,0.271967951403,0,0.5
2014-03-07 08:11:00,0.334467951403,0,0.5
2014-03-07 08:16:00,0.2323261416,0,0.5
2014-03-07 08:21:00,0.26887829912,0,0.5
2014-03-07 08:26:00,0.254765395894,0,0.5
2014-03-07 08:31:00,0.284090909091,0,0.5
2014-03-07 08:36:00,0.261756388773,0,0.5
2014-03-07 08:41:00,0.298151445329,0,0.5
2014-03-07 08:46:00,0.280896522832,0,0.5
2014-03-07 08:51:00,0.236332216171,0,0.5
2014-03-07 08:56:00,0.297470674487,0,0.5
2014-03-07 09:01:00,0.272727272727,0,0.5
2014-03-07 09:06:00,0.275502723083,0,0.5
2014-03-07 09:11:00,0.316532258065,0,0.5
2014-03-07 09:16:00,0.270135106829,0,0.5
2014-03-07 09:21:00,0.273722245496,0,0.5
2014-03-07 09:26:00,0.258928571429,0,0.5
2014-03-07 09:31:00,0.279246962715,0,0.5
2014-03-07 09:36:00,0.298099078341,0,0.5
2014-03-07 09:41:00,0.265841013825,0,0.5
2014-03-07 09:46:00,0.273198575618,0,0.5
2014-03-07 09:51:00,0.270135106829,0,0.5
2014-03-07 09:56:00,0.296240050272,0,0.5
2014-03-07 10:01:00,0.28642124005,0,0.5
2014-03-07 10:06:00,0.266443234185,0,0.5
2014-03-07 10:11:00,0.300900712191,0,0.5
2014-03-07 10:16:00,0.261311269376,0,0.5
2014-03-07 10:21:00,0.25353477168,0,0.5
2014-03-07 10:26:00,0.256310222036,0,0.5
2014-03-07 10:31:00,0.269820904902,0,0.5
2014-03-07 10:36:00,0.311609761207,0,0.5
2014-03-07 10:41:00,0.237039170507,0,0.5
2014-03-07 10:46:00,0.273198575618,0,0.5
2014-03-07 10:51:00,0.291945957269,0,0.5
2014-03-07 10:56:00,0.286944909929,0,0.5
2014-03-07 11:01:00,0.277806870549,0,0.5
2014-03-07 11:06:00,0.289379974864,0,0.5
2014-03-07 11:11:00,0.304252199413,0,0.5
2014-03-07 11:16:00,0.272622538752,0,0.5
2014-03-07 11:21:00,0.25487012987,0,0.5
2014-03-07 11:26:00,0.273512777545,0,0.5
2014-03-07 11:31:00,0.272884373691,0,0.5
2014-03-07 11:36:00,0.296318600754,0,0.5
2014-03-07 11:41:00,0.299931922916,0,0.5
2014-03-07 11:46:00,0.254582111437,0,0.5
2014-03-07 11:51:00,0.311819229158,0,0.5
2014-03-07 11:56:00,0.270135106829,0,0.5
2014-03-07 12:01:00,0.277963971512,0,0.5
2014-03-07 12:06:00,0.276995182237,0,0.5
2014-03-07 12:11:00,0.323470883955,0,0.5
2014-03-07 12:16:00,0.253901340595,0,0.5
2014-03-07 12:21:00,0.27935169669,0,0.5
2014-03-07 12:26:00,0.280896522832,0,0.5
2014-03-07 12:31:00,0.276890448261,0,0.5
2014-03-07 12:36:00,0.289589442815,0,0.5
2014-03-07 12:41:00,0.297523041475,0,0.5
2014-03-07 12:46:00,0.233373481357,0,0.5
2014-03-07 12:51:00,0.279011311269,0,0.5
2014-03-07 12:56:00,0.306346878928,0,0.5
2014-03-07 13:01:00,0.278121072476,0,0.5
2014-03-07 13:06:00,0.297470674487,0,0.5
2014-03-07 13:11:00,0.28848973607,0,0.5
2014-03-07 13:16:00,0.271287180561,0,0.5
2014-03-07 13:21:00,0.270894428152,0,0.5
2014-03-07 13:26:00,0.299931922916,0,0.5
2014-03-07 13:31:00,0.265212609971,0,0.5
2014-03-07 13:36:00,0.287651864265,0,0.5
2014-03-07 13:41:00,0.320826351068,0,0.5
2014-03-07 13:46:00,0.250916422287,0,0.5
2014-03-07 13:51:00,0.297784876414,0,0.5
2014-03-07 13:56:00,0.289301424382,0,0.5
2014-03-07 14:01:00,0.287337662338,0,0.5
2014-03-07 14:06:00,0.298099078341,0,0.5
2014-03-07 14:11:00,0.283462505237,0,0.5
2014-03-07 14:16:00,0.291945957269,0,0.5
2014-03-07 14:21:00,0.271051529116,0,0.5
2014-03-07 14:26:00,0.292626728111,0,0.5
2014-03-07 14:31:00,0.262149141181,0,0.5
2014-03-07 14:36:00,0.285923753666,0,0.5
2014-03-07 14:41:00,0.306661080855,0,0.5
2014-03-07 14:46:00,0.258457268538,0,0.5
2014-03-07 14:51:00,0.284850230415,0,0.5
2014-03-07 14:56:00,0.302393171345,0,0.5
2014-03-07 15:01:00,0.305980310013,0,0.5
2014-03-07 15:06:00,0.267045454545,0,0.5
2014-03-07 15:11:00,0.27594784248,0,0.5
2014-03-07 15:16:00,0.258143066611,0,0.5
2014-03-07 15:21:00,0.272386887306,0,0.5
2014-03-07 15:26:00,0.278566191873,0,0.5
2014-03-07 15:31:00,0.273957896942,0,0.5
2014-03-07 15:36:00,0.288254084625,0,0.5
2014-03-07 15:41:00,0.338055090071,0,0.5
2014-03-07 15:46:00,0.236620234604,0,0.5
2014-03-07 15:51:00,0.297470674487,0,0.5
2014-03-07 15:56:00,0.299408253037,0,0.5
2014-03-07 16:01:00,0.283959991621,0,0.5
2014-03-07 16:06:00,0.28241516548,0,0.5
2014-03-07 16:11:00,0.324832425639,0,0.5
2014-03-07 16:16:00,0.258457268538,0,0.5
2014-03-07 16:21:00,0.296240050272,0,0.5
2014-03-07 16:26:00,0.26474130708,0,0.5
2014-03-07 16:31:00,0.293804985337,0,0.5
2014-03-07 16:36:00,0.270632593213,0,0.5
2014-03-07 16:41:00,0.298884583159,0,0.5
2014-03-07 16:46:00,0.266757436112,0,0.5
2014-03-07 16:51:00,0.265212609971,0,0.5
2014-03-07 16:56:00,0.307315668203,0,0.5
2014-03-07 17:01:00,0.30056032677,0,0.5
2014-03-07 17:06:00,0.264898408044,0,0.5
2014-03-07 17:11:00,0.325748847926,0,0.5
2014-03-07 17:16:00,0.282310431504,0,0.5
2014-03-07 17:21:00,0.261442186845,0,0.5
2014-03-07 17:26:00,0.286630708002,0,0.5
2014-03-07 17:31:00,0.301476749057,0,0.5
2014-03-07 17:36:00,0.342349183075,0,0.5
2014-03-07 17:41:00,0.270449308756,0,0.5
2014-03-07 17:46:00,0.298099078341,0,0.5
2014-03-07 17:51:00,0.257645580226,0,0.5
2014-03-07 17:56:00,0.289720360285,0,0.5
2014-03-07 18:01:00,0.317029744449,0,0.5
2014-03-07 18:06:00,0.292940930038,0,0.5
2014-03-07 18:11:00,0.277806870549,0,0.5
2014-03-07 18:16:00,0.300141390867,0,0.5
2014-03-07 18:21:00,0.266862170088,0,0.5
2014-03-07 18:26:00,0.313992459154,0,0.5
2014-03-07 18:31:00,0.261834939254,0,0.5
2014-03-07 18:36:00,0.27935169669,0,0.5
2014-03-07 18:41:00,0.301790950984,0,0.5
2014-03-07 18:46:00,0.275712191035,0,0.5
2014-03-07 18:51:00,0.263510682866,0,0.5
2014-03-07 18:56:00,0.307917888563,0,0.5
2014-03-07 19:01:00,0.299931922916,0,0.5
2014-03-07 19:06:00,0.274298282363,0,0.5
2014-03-07 19:11:00,0.311923963134,0,0.5
2014-03-07 19:16:00,0.255681818182,0,0.5
2014-03-07 19:21:00,0.284562211982,0,0.5
2014-03-07 19:26:00,0.277204650189,0,0.5
2014-03-07 19:31:00,0.304540217847,0,0.5
2014-03-07 19:36:00,0.311321742773,0,0.5
2014-03-07 19:41:00,0.258876204441,0,0.5
2014-03-07 19:46:00,0.292810012568,0,0.5
2014-03-07 19:51:00,0.302707373272,0,0.5
2014-03-07 19:56:00,0.290715333054,0,0.5
2014-03-07 20:01:00,0.281865312107,0,0.5
2014-03-07 20:06:00,0.287023460411,0,0.5
2014-03-07 20:11:00,0.3405163385,0,0.5
2014-03-07 20:16:00,0.250157100964,0,0.5
2014-03-07 20:21:00,0.297235023041,0,0.5
2014-03-07 20:26:00,0.265212609971,0,0.5
2014-03-07 20:31:00,0.27935169669,0,0.5
2014-03-07 20:36:00,0.283959991621,0,0.5
2014-03-07 20:41:00,0.288254084625,0,0.5
2014-03-07 20:46:00,0.293176581483,0,0.5
2014-03-07 20:51:00,0.281498743192,0,0.5
2014-03-07 20:56:00,0.297732509426,0,0.5
2014-03-07 21:01:00,0.28241516548,0,0.5
2014-03-07 21:06:00,0.279665898618,0,0.5
2014-03-07 21:11:00,0.322214076246,0,0.5
2014-03-07 21:16:00,0.291945957269,0,0.5
2014-03-07 21:21:00,0.262437159615,0,0.5
2014-03-07 21:26:00,0.313154587348,0,0.5
2014-03-07 21:31:00,0.257593213238,0,0.5
2014-03-07 21:36:00,0.29508797654,0,0.5
2014-03-07 21:41:00,0.305482823628,0,0.5
2014-03-07 21:46:00,0.307315668203,0,0.5
2014-03-07 21:51:00,0.257540846251,0,0.5
2014-03-07 21:56:00,0.309436531211,0,0.5
2014-03-07 22:01:00,0.301372015082,0,0.5
2014-03-07 22:06:00,0.269506702974,0,0.5
2014-03-07 22:11:00,0.306189777964,0,0.5
2014-03-07 22:16:00,0.303937997486,0,0.5
2014-03-07 22:21:00,0.26060431504,0,0.5
2014-03-07 22:26:00,0.285190615836,0,0.5
2014-03-07 22:31:00,0.26840699623,0,0.5
2014-03-07 22:36:00,0.29582111437,0,0.5
2014-03-07 22:41:00,0.283357771261,0,0.5
2014-03-07 22:46:00,0.265657729367,0,0.5
2014-03-07 22:51:00,0.308546292417,0,0.5
2014-03-07 22:56:00,0.287651864265,0,0.5
2014-03-07 23:01:00,0.28241516548,0,0.5
2014-03-07 23:06:00,0.289798910767,0,0.5
2014-03-07 23:11:00,0.324675324675,0,0.5
2014-03-07 23:16:00,0.275057603687,0,0.5
2014-03-07 23:21:00,0.297968160871,0,0.5
2014-03-07 23:26:00,0.334049015501,0,0.5
2014-03-07 23:31:00,0.247093632174,0,0.5
2014-03-07 23:36:00,0.295637829912,0,0.5
2014-03-07 23:41:00,0.311321742773,0,0.5
2014-03-07 23:46:00,0.30749895266,0,0.5
2014-03-07 23:51:00,0.291657938835,0,0.5
2014-03-07 23:56:00,0.297732509426,0,0.5
2014-03-08 00:01:00,0.307996439045,0,0.5
2014-03-08 00:06:00,0.2676738584,0,0.5
2014-03-08 00:11:00,0.33064516129,0,0.5
2014-03-08 00:16:00,0.281079807289,0,0.5
2014-03-08 00:21:00,0.287102010892,0,0.5
2014-03-08 00:26:00,0.312840385421,0,0.5
2014-03-08 00:31:00,0.290950984499,0,0.5
2014-03-08 00:36:00,0.268747381651,0,0.5
2014-03-08 00:41:00,0.288254084625,0,0.5
2014-03-08 00:46:00,0.287966066192,0,0.5
2014-03-08 00:51:00,0.291265186426,0,0.5
2014-03-08 00:56:00,0.313154587348,0,0.5
2014-03-08 01:01:00,0.315930037704,0,0.5
2014-03-08 01:06:00,0.285609551739,0,0.5
2014-03-08 01:11:00,0.296240050272,0,0.5
2014-03-08 01:16:00,0.284274193548,0,0.5
2014-03-08 01:21:00,0.268328445748,0,0.5
2014-03-08 01:26:00,0.300665060746,0,0.5
2014-03-08 01:31:00,0.288332635107,0,0.5
2014-03-08 01:36:00,0.281943862589,0,0.5
2014-03-08 01:41:00,0.323287599497,0,0.5
2014-03-08 01:46:00,0.289982195224,0,0.5
2014-03-08 01:51:00,0.273198575618,0,0.5
2014-03-08 01:56:00,0.314071009636,0,0.5
2014-03-08 02:01:00,0.306085043988,0,0.5
2014-03-08 02:06:00,0.263065563469,0,0.5
2014-03-08 02:11:00,0.311321742773,0,0.5
2014-03-08 02:16:00,0.323156682028,0,0.5
2014-03-08 02:21:00,0.232954545455,0,0.5
2014-03-08 02:26:00,0.286107038123,0,0.5
2014-03-08 02:31:00,0.31056242145,0,0.5
2014-03-08 02:36:00,0.278278173439,0,0.5
2014-03-08 02:41:00,0.274114997905,0,0.5
2014-03-08 02:46:00,0.290113112694,0,0.5
2014-03-08 02:51:00,0.30762987013,0,0.5
2014-03-08 02:56:00,0.322056975283,0,0.5
2014-03-08 03:01:00,0.277597402597,0,0.5
2014-03-08 03:06:00,0.277806870549,0,0.5
2014-03-08 03:11:00,0.311321742773,0,0.5
2014-03-08 03:16:00,0.306791998324,0,0.5
2014-03-08 03:21:00,0.293595517386,0,0.5
2014-03-08 03:26:00,0.28375052367,0,0.5
2014-03-08 03:31:00,0.300010473398,0,0.5
2014-03-08 03:36:00,0.302000418936,0,0.5
2014-03-08 03:41:00,0.304147465438,0,0.5
2014-03-08 03:46:00,0.287337662338,0,0.5
2014-03-08 03:51:00,0.316741726016,0,0.5
2014-03-08 03:56:00,0.287128194386,0,0.5
2014-03-08 04:01:00,0.284274193548,0,0.5
2014-03-08 04:06:00,0.320538332635,0,0.5
2014-03-08 04:11:00,0.260918516967,0,0.5
2014-03-08 04:16:00,0.285190615836,0,0.5
2014-03-08 04:21:00,0.310693338919,0,0.5
2014-03-08 04:26:00,0.266364683703,0,0.5
2014-03-08 04:31:00,0.291631755341,0,0.5
2014-03-08 04:36:00,0.291029534981,0,0.5
2014-03-08 04:41:00,0.306975282782,0,0.5
2014-03-08 04:46:00,0.258169250105,0,0.5
2014-03-08 04:51:00,0.321140552995,0,0.5
2014-03-08 04:56:00,0.264924591537,0,0.5
2014-03-08 05:01:00,0.282572266443,0,0.5
2014-03-08 05:06:00,0.27935169669,0,0.5
2014-03-08 05:11:00,0.313154587348,0,0.5
2014-03-08 05:16:00,0.302707373272,0,0.5
2014-03-08 05:21:00,0.283357771261,0,0.5
2014-03-08 05:26:00,0.271915584416,0,0.5
2014-03-08 05:31:00,0.26327503142,0,0.5
2014-03-08 05:36:00,0.288096983661,0,0.5
2014-03-08 05:41:00,0.299146418098,0,0.5
2014-03-08 05:46:00,0.283645789694,0,0.5
2014-03-08 05:51:00,0.321114369501,0,0.5
2014-03-08 05:56:00,0.262149141181,0,0.5
2014-03-08 06:01:00,0.273826979472,0,0.5
2014-03-08 06:06:00,0.281812945119,0,0.5
2014-03-08 06:11:00,0.305168621701,0,0.5
2014-03-08 06:16:00,0.294721407625,0,0.5
2014-03-08 06:21:00,0.280896522832,0,0.5
2014-03-08 06:26:00,0.257226644323,0,0.5
2014-03-08 06:31:00,0.294983242564,0,0.5
2014-03-08 06:36:00,0.277204650189,0,0.5
2014-03-08 06:41:00,0.255838919145,0,0.5
2014-03-08 06:46:00,0.275659824047,0,0.5
2014-03-08 06:51:00,0.303623795559,0,0.5
2014-03-08 06:56:00,0.28241516548,0,0.5
2014-03-08 07:01:00,0.29082006703,0,0.5
2014-03-08 07:06:00,0.261992040218,0,0.5
2014-03-08 07:11:00,0.318993506494,0,0.5
2014-03-08 07:16:00,0.305168621701,0,0.5
2014-03-08 07:21:00,0.234787390029,0,0.5
2014-03-08 07:26:00,0.2780163385,0,0.5
2014-03-08 07:31:00,0.273931713448,0,0.5
2014-03-08 07:36:00,0.28642124005,0,0.5
2014-03-08 07:41:00,0.288987222455,0,0.5
2014-03-08 07:46:00,0.333865731043,0,0.5
2014-03-08 07:51:00,0.22064830331,0,0.5
2014-03-08 07:56:00,0.298753665689,0,0.5
2014-03-08 08:01:00,0.276419145371,0,0.5
2014-03-08 08:06:00,0.291029534981,0,0.5
2014-03-08 08:11:00,0.265212609971,0,0.5
2014-03-08 08:16:00,0.298413280268,0,0.5
2014-03-08 08:21:00,0.248298072895,0,0.5
2014-03-08 08:26:00,0.287651864265,0,0.5
2014-03-08 08:31:00,0.257828864684,0,0.5
2014-03-08 08:36:00,0.283357771261,0,0.5
2014-03-08 08:41:00,0.255158148303,0,0.5
2014-03-08 08:46:00,0.294590490155,0,0.5
2014-03-08 08:51:00,0.250157100964,0,0.5
2014-03-08 08:56:00,0.299015500628,0,0.5
2014-03-08 09:01:00,0.28495496439,0,0.5
2014-03-08 09:06:00,0.251073523251,0,0.5
2014-03-08 09:11:00,0.303047758693,0,0.5
2014-03-08 09:16:00,0.297182656054,0,0.5
2014-03-08 09:21:00,0.27094679514,0,0.5
2014-03-08 09:26:00,0.25293255132,0,0.5
2014-03-08 09:31:00,0.272282153331,0,0.5
2014-03-08 09:36:00,0.295952031839,0,0.5
2014-03-08 09:41:00,0.267988060327,0,0.5
2014-03-08 09:46:00,0.305482823628,0,0.5
2014-03-08 09:51:00,0.234473188102,0,0.5
2014-03-08 09:56:00,0.301476749057,0,0.5
2014-03-08 10:01:00,0.271967951403,0,0.5
2014-03-08 10:06:00,0.288568286552,0,0.5
2014-03-08 10:11:00,0.295533095936,0,0.5
2014-03-08 10:16:00,0.280320485966,0,0.5
2014-03-08 10:21:00,0.249528697109,0,0.5
2014-03-08 10:26:00,0.267988060327,0,0.5
2014-03-08 10:31:00,0.288437369083,0,0.5
2014-03-08 10:36:00,0.260368663594,0,0.5
2014-03-08 10:41:00,0.268590280687,0,0.5
2014-03-08 10:46:00,0.307917888563,0,0.5
2014-03-08 10:51:00,0.228346250524,0,0.5
2014-03-08 10:56:00,0.299931922916,0,0.5
2014-03-08 11:01:00,0.270737327189,0,0.5
2014-03-08 11:06:00,0.273512777545,0,0.5
2014-03-08 11:11:00,0.288254084625,0,0.5
2014-03-08 11:16:00,0.318050900712,0,0.5
2014-03-08 11:21:00,0.247695852535,0,0.5
2014-03-08 11:26:00,0.256519689987,0,0.5
2014-03-08 11:31:00,0.270737327189,0,0.5
2014-03-08 11:36:00,0.280268118978,0,0.5
2014-03-08 11:41:00,0.28948470884,0,0.5
2014-03-08 11:46:00,0.287966066192,0,0.5
2014-03-08 11:51:00,0.281498743192,0,0.5
2014-03-08 11:56:00,0.276942815249,0,0.5
2014-03-08 12:01:00,0.259347507331,0,0.629300301543
2014-03-08 12:06:00,0.29409300377,0,0.680223208862
2014-03-08 12:11:00,0.276890448261,0,0.617822312967
2014-03-08 12:16:00,0.299015500628,0,0.521697470342
2014-03-08 12:21:00,0.247381650607,0,0.5750553558
2014-03-08 12:26:00,0.26974235442,0,0.598718235427
2014-03-08 12:31:00,0.307865521575,0,0.557213484857
2014-03-08 12:36:00,0.241071428571,0,0.660803501596
2014-03-08 12:41:00,0.277806870549,0,0.668571573958
2014-03-08 12:46:00,0.295323627985,0,0.629243187278
2014-03-08 12:51:00,0.252304147465,0,0.644500533053
2014-03-08 12:56:00,0.30762987013,0,0.614993900464
2014-03-08 13:01:00,0.279037494763,0,0.597935499575
2014-03-08 13:06:00,0.280896522832,0,0.63781256332
2014-03-08 13:11:00,0.345281734395,0,0.584185920294
2014-03-08 13:16:00,0.24586300796,0,0.529791225325
2014-03-08 13:21:00,0.285792836196,0,0.521011687267
2014-03-08 13:26:00,0.261834939254,0,0.526783372423
2014-03-08 13:31:00,0.278121072476,0,0.527505402911
2014-03-08 13:36:00,0.28642124005,0,0.507021851618
2014-03-08 13:41:00,0.292260159196,0,0.598045150178
2014-03-08 13:46:00,0.322056975283,0,0.629899115546
2014-03-08 13:51:00,0.255027230834,0,0.576505444226
2014-03-08 13:56:00,0.282127147047,0,0.579285749214
2014-03-08 14:01:00,0.280896522832,0,0.568149613693
2014-03-08 14:06:00,0.280268118978,0,0.510760059333
2014-03-08 14:11:00,0.309803100126,0,0.565763887396
2014-03-08 14:16:00,0.302707373272,0,0.656002969329
2014-03-08 14:21:00,0.257226644323,0,0.610623158908
2014-03-08 14:26:00,0.297784876414,0,0.635536113095
2014-03-08 14:31:00,0.282467532468,0,0.614097192362
2014-03-08 14:36:00,0.263379765396,0,0.519445673818
2014-03-08 14:41:00,0.279953917051,0,0.537903459424
2014-03-08 14:46:00,0.300874528697,0,0.580585819793
2014-03-08 14:51:00,0.255184331797,0,0.521907483359
2014-03-08 14:56:00,0.314987431923,0,0.600791182632
2014-03-08 15:01:00,0.290113112694,0,0.556347132374
2014-03-08 15:06:00,0.26461038961,0,0.531181793085
2014-03-08 15:11:00,0.30823209049,0,0.58560043651
2014-03-08 15:16:00,0.317160661919,0,0.628585454469
2014-03-08 15:21:00,0.24499895266,0,0.544501944691
2014-03-08 15:26:00,0.280268118978,0,0.582888321087
2014-03-08 15:31:00,0.282729367407,0,0.589131834994
2014-03-08 15:36:00,0.289798910767,0,0.564097656085
2014-03-08 15:41:00,0.316846459992,0,0.697553304192
2014-03-08 15:46:00,0.309724549644,0,0.68686761003
2014-03-08 15:51:00,0.250209467951,0,0.601258100162
2014-03-08 15:56:00,0.311609761207,0,0.701235926724
2014-03-08 16:01:00,0.282729367407,0,0.648293387708
2014-03-08 16:06:00,0.290401131127,0,0.589484582863
2014-03-08 16:11:00,0.299460620025,0,0.705627965658
2014-03-08 16:16:00,0.32810536238,0,0.792992361091
2014-03-08 16:21:00,0.244318181818,0,0.724104608677
2014-03-08 16:26:00,0.286107038123,0,0.716936102499
2014-03-08 16:31:00,0.300246124843,0,0.68364663507
2014-03-08 16:36:00,0.264898408044,0,0.586719475985
2014-03-08 16:41:00,0.288411185589,0,0.669913413803
2014-03-08 16:46:00,0.290401131127,0,0.624463495082
2014-03-08 16:51:00,0.295637829912,0,0.652379485356
2014-03-08 16:56:00,0.278985127775,0,0.627727910235
2014-03-08 17:01:00,0.291945957269,0,0.61120278715
2014-03-08 17:06:00,0.279116045245,0,0.500154541479
2014-03-08 17:11:00,0.306085043988,0,0.639164783295
2014-03-08 17:16:00,0.330357142857,0,0.729634428591
2014-03-08 17:21:00,0.248952660243,0,0.623832484901
2014-03-08 17:26:00,0.294852325094,0,0.687403064459
2014-03-08 17:31:00,0.26560536238,0,0.639391163727
2014-03-08 17:36:00,0.309934017595,0,0.680681777399
2014-03-08 17:41:00,0.279665898618,0,0.647058568004
2014-03-08 17:46:00,0.285190615836,0,0.660276916193
2014-03-08 17:51:00,0.307315668203,0,0.6921510876
2014-03-08 17:56:00,0.288856304985,0,0.711643657243
2014-03-08 18:01:00,0.290034562212,0,0.679222047232
2014-03-08 18:06:00,0.320983452032,0,0.659612183383
2014-03-08 18:11:00,0.281865312107,0,0.726222538027
2014-03-08 18:16:00,0.288044616674,0,0.712984008187
2014-03-08 18:21:00,0.304671135316,0,0.784555663297
2014-03-08 18:26:00,0.265134059489,0,0.701603065445
2014-03-08 18:31:00,0.282179514034,0,0.706617253671
2014-03-08 18:36:00,0.287966066192,0,0.71210795875
2014-03-08 18:41:00,0.279587348136,0,0.65522372236
2014-03-08 18:46:00,0.302550272308,0,0.683861804331
2014-03-08 18:51:00,0.306085043988,0,0.7160658125
2014-03-08 18:56:00,0.271967951403,0,0.613403107417
2014-03-08 19:01:00,0.284274193548,0,0.618714995235
2014-03-08 19:06:00,0.283174486804,0,0.607953716508
2014-03-08 19:11:00,0.309462714705,0,0.618542127725
2014-03-08 19:16:00,0.304854419774,0,0.702284349151
2014-03-08 19:21:00,0.283645789694,0,0.70521096304
2014-03-08 19:26:00,0.288882488479,0,0.707033334637
2014-03-08 19:31:00,0.264898408044,0,0.677217171033
2014-03-08 19:36:00,0.292862379556,0,0.656892726506
2014-03-08 19:41:00,0.302393171345,0,0.649022320198
2014-03-08 19:46:00,0.26560536238,0,0.635308913458
2014-03-08 19:51:00,0.309148512778,0,0.687777647425
2014-03-08 19:56:00,0.292260159196,0,0.706096767774
2014-03-08 20:01:00,0.318548387097,0,0.723902482118
2014-03-08 20:06:00,0.247460201089,0,0.603765283826
2014-03-08 20:11:00,0.305482823628,0,0.651429487392
2014-03-08 20:16:00,0.282127147047,0,0.636898308632
2014-03-08 20:21:00,0.313756807708,0,0.736393826666
2014-03-08 20:26:00,0.272125052367,0,0.695863067789
2014-03-08 20:31:00,0.26620758274,0,0.619291049043
2014-03-08 20:36:00,0.307001466276,0,0.706305013378
2014-03-08 20:41:00,0.275083787181,0,0.635308913458
2014-03-08 20:46:00,0.321454754922,0,0.696550234035
2014-03-08 20:51:00,0.240312107248,0,0.525038106688
2014-03-08 20:56:00,0.309436531211,0,0.662986053021
2014-03-08 21:01:00,0.284536028488,0,0.6177927623
2014-03-08 21:06:00,0.286107038123,0,0.626526284326
2014-03-08 21:11:00,0.336824465857,0,0.67575089117
2014-03-08 21:16:00,0.274298282363,0,0.680249555317
2014-03-08 21:21:00,0.26000209468,0,0.60799762366
2014-03-08 21:26:00,0.279953917051,0,0.546943721977
2014-03-08 21:31:00,0.29409300377,0,0.590057990167
2014-03-08 21:36:00,0.282493715961,0,0.501097221811
2014-03-08 21:41:00,0.294485756179,0,0.623818478233
2014-03-08 21:46:00,0.323601801424,0,0.654430212061
2014-03-08 21:51:00,0.244710934227,0,0.566463114009
2014-03-08 21:56:00,0.314385211563,0,0.629542628288
2014-03-08 22:01:00,0.279665898618,0,0.500252898977
2014-03-08 22:06:00,0.288254084625,0,0.532361953315
2014-03-08 22:11:00,0.314385211563,0,0.653649638471
2014-03-08 22:16:00,0.30056032677,0,0.696431662622
2014-03-08 22:21:00,0.28775659824,0,0.683525892295
2014-03-08 22:26:00,0.274429199832,0,0.666773226512
2014-03-08 22:31:00,0.263667783829,0,0.599901066466
2014-03-08 22:36:00,0.288882488479,0,0.520989457884
2014-03-08 22:41:00,0.283645789694,0,0.609274915764
2014-03-08 22:46:00,0.322685379137,0,0.627542362568
2014-03-08 22:51:00,0.242851906158,0,0.544906824384
2014-03-08 22:56:00,0.310379136992,0,0.59504563014
2014-03-08 23:01:00,0.303623795559,0,0.570800328111
2014-03-08 23:06:00,0.267988060327,0,0.503848044594
2014-03-08 23:11:00,0.357090490155,0,0.651974785236
2014-03-08 23:16:00,0.240443024717,0,0.577082876601
2014-03-08 23:21:00,0.287023460411,0,0.629028606179
2014-03-08 23:26:00,0.283357771261,0,0.616913476718
2014-03-08 23:31:00,0.288568286552,0,0.627713949664
2014-03-08 23:36:00,0.296868454127,0,0.57014730865
2014-03-08 23:41:00,0.331797235023,0,0.754991012182
2014-03-08 23:46:00,0.255996020109,0,0.646651629756
2014-03-08 23:51:00,0.319779011311,0,0.680668592646
2014-03-08 23:56:00,0.279168412233,0,0.703370618093
2014-03-09 00:01:00,0.283357771261,0,0.543168534989
2014-03-09 00:06:00,0.285504817763,0,0.643781976554
2014-03-09 00:11:00,0.330095307918,0,0.731469760403
2014-03-09 00:16:00,0.264662756598,0,0.694738637341
2014-03-09 00:21:00,0.285033514872,0,0.687550560704
2014-03-09 00:26:00,0.295506912442,0,0.684762465514
2014-03-09 00:31:00,0.303937997486,0,0.625595946838
2014-03-09 00:36:00,0.273826979472,0,0.663910533911
2014-03-09 00:41:00,0.323994553833,0,0.672742279824
2014-03-09 00:46:00,0.243689777964,0,0.595865668085
2014-03-09 00:51:00,0.28241516548,0,0.593756156739
2014-03-09 00:56:00,0.31530163385,0,0.658822495759
2014-03-09 01:01:00,0.288568286552,0,0.567295545753
2014-03-09 01:06:00,0.31530163385,0,0.677908945835
2014-03-09 01:11:00,0.295637829912,0,0.699542130825
2014-03-09 01:16:00,0.264296187683,0,0.634158322688
2014-03-09 01:21:00,0.282729367407,0,0.587234933926
2014-03-09 01:26:00,0.283959991621,0,0.609855114454
2014-03-09 01:31:00,0.296240050272,0,0.547243162899
2014-03-09 01:36:00,0.285190615836,0,0.639943094751
2014-03-09 01:41:00,0.338657310432,0,0.75270415554
2014-03-09 01:46:00,0.23939568496,0,0.596685284993
2014-03-09 01:51:00,0.301790950984,0,0.625939666253
2014-03-09 01:56:00,0.277204650189,0,0.540289566229
2014-03-09 03:00:00,0.284719312945,0,0.515205815463
2014-03-09 03:00:00,0.271182446586,0,0.531039349772
2014-03-09 03:00:00,0.316218056137,0,0.6068935698
2014-03-09 03:00:00,0.308860494344,0,0.660927644028
2014-03-09 03:00:00,0.281524926686,0,0.629314202508
2014-03-09 03:00:00,0.270737327189,0,0.597387476043
2014-03-09 03:00:00,0.288987222455,0,0.51602618345
2014-03-09 03:00:00,0.274533933808,0,0.564618827954
2014-03-09 03:00:00,0.316322790113,0,0.597387476043
2014-03-09 03:00:00,0.255341432761,0,0.547901838126
2014-03-09 03:00:00,0.282834101382,0,0.543588199001
2014-03-09 03:00:00,0.317160661919,0,0.646145820273
2014-03-09 03:01:00,0.302393171345,0,0.616047682717
2014-03-09 03:06:00,0.285295349811,0,0.563190025481
2014-03-09 03:11:00,0.308415374948,0,0.623359348281
2014-03-09 03:16:00,0.268590280687,0,0.618643309734
2014-03-09 03:21:00,0.316532258065,0,0.677583631814
2014-03-09 03:26:00,0.307315668203,0,0.742224832873
2014-03-09 03:31:00,0.265841013825,0,0.640112758474
2014-03-09 03:36:00,0.31263091747,0,0.754753329974
2014-03-09 03:41:00,0.297182656054,0,0.780051331336
2014-03-09 03:46:00,0.26060431504,0,0.672141866175
2014-03-09 03:51:00,0.291657938835,0,0.649456945875
2014-03-09 03:56:00,0.304854419774,0,0.690327960849
2014-03-09 04:01:00,0.284562211982,0,0.64022585229
2014-03-09 04:06:00,0.30762987013,0,0.720544527677
2014-03-09 04:11:00,0.312238165061,0,0.712146938647
2014-03-09 04:16:00,0.266600335149,0,0.627256327823
2014-03-09 04:21:00,0.287075827398,0,0.672633146888
2014-03-09 04:26:00,0.283357771261,0,0.609565045608
2014-03-09 04:31:00,0.308467741935,0,0.6343289067
2014-03-09 04:36:00,0.284928780897,0,0.685728777518
2014-03-09 04:41:00,0.268511730205,0,0.636884462433
2014-03-09 04:46:00,0.301476749057,0,0.629542628288
2014-03-09 04:51:00,0.264427105153,0,0.584878928863
2014-03-09 04:56:00,0.309776916632,0,0.589705360114
2014-03-09 05:01:00,0.286735441977,0,0.531700695281
2014-03-09 05:06:00,0.305535190616,0,0.619564921575
2014-03-09 05:11:00,0.280582320905,0,0.605206778896
2014-03-09 05:16:00,0.289196690406,0,0.618124606888
2014-03-09 05:21:00,0.317055927943,0,0.636884462433
2014-03-09 05:26:00,0.248926476749,0,0.556571374054
2014-03-09 05:31:00,0.29409300377,0,0.61408307693
2014-03-09 05:36:00,0.316532258065,0,0.646876350917
2014-03-09 05:41:00,0.278801843318,0,0.639913484223
2014-03-09 05:46:00,0.302707373272,0,0.624534168849
2014-03-09 05:51:00,0.265395894428,0,0.576992713054
2014-03-09 05:56:00,0.306713447842,0,0.579654134169
2014-03-09 06:01:00,0.30336196062,0,0.630254821758
2014-03-09 06:06:00,0.284719312945,0,0.620455732828
2014-03-09 06:11:00,0.31616568915,0,0.618497891265
2014-03-09 06:16:00,0.259975911186,0,0.642568438128
2014-03-09 06:21:00,0.282860284876,0,0.618094427727
2014-03-09 06:26:00,0.286840175953,0,0.551341319605
2014-03-09 06:31:00,0.299329702556,0,0.59776632263
2014-03-09 06:36:00,0.286604524508,0,0.561431259172
2014-03-09 06:41:00,0.293176581483,0,0.623616280332
2014-03-09 06:46:00,0.257357561793,0,0.511979754778
2014-03-09 06:51:00,0.298072894847,0,0.500200836265
2014-03-09 06:56:00,0.289746543779,0,0.51137692454
2014-03-09 07:01:00,0.283043569334,0,0.564626965681
2014-03-09 07:06:00,0.281498743192,0,0.515334584945
2014-03-09 07:11:00,0.345281734395,0,0.626253307377
2014-03-09 07:16:00,0.261285085882,0,0.569225422134
2014-03-09 07:21:00,0.262149141181,0,0.516057731088
2014-03-09 07:26:00,0.280896522832,0,0.529183327051
2014-03-09 07:31:00,0.27474340176,0,0.571283243963
2014-03-09 07:36:00,0.311531210725,0,0.55295572643
2014-03-09 07:41:00,0.287023460411,0,0.527639713054
2014-03-09 07:46:00,0.276890448261,0,0.501949785784
2014-03-09 07:51:00,0.257462295769,0,0.560636187852
2014-03-09 07:56:00,0.306399245915,0,0.503517778617
2014-03-09 08:01:00,0.273198575618,0,0.664579541285
2014-03-09 08:06:00,0.306085043988,0,0.566054920182
2014-03-09 08:11:00,0.269218684541,0,0.549945083518
2014-03-09 08:16:00,0.279953917051,0,0.552098419884
2014-03-09 08:21:00,0.308546292417,0,0.52559377912
2014-03-09 08:26:00,0.242459153749,0,0.631034076701
2014-03-09 08:31:00,0.276733347298,0,0.653210933316
2014-03-09 08:36:00,0.296580435693,0,0.610385012632
2014-03-09 08:41:00,0.256048387097,0,0.613512601975
2014-03-09 08:46:00,0.276288227901,0,0.678078962095
2014-03-09 08:51:00,0.28948470884,0,0.643676979205
2014-03-09 08:56:00,0.285347716799,0,0.687236721146
2014-03-09 09:01:00,0.289196690406,0,0.645309924269
2014-03-09 09:06:00,0.285190615836,0,0.633995488695
2014-03-09 09:11:00,0.274821952241,0,0.704422744492
2014-03-09 09:16:00,0.278723292836,0,0.628465015251
2014-03-09 09:21:00,0.276000209468,0,0.630064223165
2014-03-09 09:26:00,0.27534562212,0,0.675310072905
2014-03-09 09:31:00,0.272282153331,0,0.640911883332
2014-03-09 09:36:00,0.311793045664,0,0.561947292649
2014-03-09 09:41:00,0.30056032677,0,0.536636057175
2014-03-09 09:46:00,0.23939568496,0,0.639554841905
2014-03-09 09:51:00,0.275974025974,0,0.667714519822
2014-03-09 09:56:00,0.303309593632,0,0.628922159488
2014-03-09 10:01:00,0.292862379556,0,0.588949120176
2014-03-09 10:06:00,0.275659824047,0,0.595815115049
2014-03-09 10:11:00,0.271967951403,0,0.604807285456
2014-03-09 10:16:00,0.287651864265,0,0.577209323519
2014-03-09 10:21:00,0.254582111437,0,0.61674825498
2014-03-09 10:26:00,0.290715333054,0,0.662262186634
2014-03-09 10:31:00,0.257540846251,0,0.747620457407
2014-03-09 10:36:00,0.295952031839,0,0.633255875773