timestamp,value,is_anomaly,anomaly_score
2014-07-01 00:00:00,0.276506162444,0,0.5
2014-07-01 00:30:00,0.207175482916,0,0.5
2014-07-01 01:00:00,0.158258695042,0,0.5
2014-07-01 01:30:00,0.118604710505,0,0.5
2014-07-01 02:00:00,0.0972721937278,0,0.5
2014-07-01 02:30:00,0.0731072494833,0,0.5
2014-07-01 03:00:00,0.0602464977417,0,0.5
2014-07-01 03:30:00,0.0524637015489,0,0.5
2014-07-01 04:00:00,0.0564699277859,0,0.5
2014-07-01 04:30:00,0.0548623338182,0,0.5
2014-07-01 05:00:00,0.0639720329684,0,0.5
2014-07-01 05:30:00,0.111153640052,0,0.5
2014-07-01 06:00:00,0.166322182245,0,0.5
2014-07-01 06:30:00,0.281482048534,0,0.5
2014-07-01 07:00:00,0.353389981883,0,0.5
2014-07-01 07:30:00,0.404628849932,0,0.5
2014-07-01 08:00:00,0.457067034117,0,0.5
2014-07-01 08:30:00,0.518972160555,0,0.5
2014-07-01 09:00:00,0.49837964735,0,0.5
2014-07-01 09:30:00,0.512873510424,0,0.5
2014-07-01 10:00:00,0.484217510016,0,0.5
2014-07-01 10:30:00,0.451963561203,0,0.5
2014-07-01 11:00:00,0.439944882493,0,0.5
2014-07-01 11:30:00,0.470922963076,0,0.5
2014-07-01 12:00:00,0.482278190309,0,0.5
2014-07-01 12:30:00,0.481716808288,0,0.5
2014-07-01 13:00:00,0.463650514175,0,0.5
2014-07-01 13:30:00,0.496338258185,0,0.5
2014-07-01 14:00:00,0.498558268902,0,0.5
2014-07-01 14:30:00,0.525223914874,0,0.5
2014-07-01 15:00:00,0.494322386384,0,0.5
2014-07-01 15:30:00,0.472989869606,0,0.5
2014-07-01 16:00:00,0.41389165327,0,0.5
2014-07-01 16:30:00,0.382888055322,0,0.5
2014-07-01 17:00:00,0.438771083722,0,0.5
2014-07-01 17:30:00,0.498022404246,0,0.5
2014-07-01 18:00:00,0.58582765572,0,0.5
2014-07-01 18:30:00,0.704024088392,0,0.5
2014-07-01 19:00:00,0.684350200311,0,0.5
2014-07-01 19:30:00,0.63528030825,0,0.5
2014-07-01 20:00:00,0.583505575544,0,0.5
2014-07-01 20:30:00,0.520196994054,0,0.5
2014-07-01 21:00:00,0.596927709306,0,0.5
2014-07-01 21:30:00,0.623414733726,0,0.5
2014-07-01 22:00:00,0.594809768047,0,0.5
2014-07-01 22:30:00,0.554364745209,0,0.5
2014-07-01 23:00:00,0.51279695833,0,0.5
2014-07-01 23:30:00,0.410906121616,0,0.5
2014-07-02 00:00:00,0.340963025339,0,0.5
2014-07-02 00:30:00,0.253566051698,0,0.5
2014-07-02 01:00:00,0.192987828217,0,0.5
2014-07-02 01:30:00,0.150782107224,0,0.5
2014-07-02 02:00:00,0.122789558294,0,0.5
2014-07-02 02:30:00,0.0925259639184,0,0.5
2014-07-02 03:00:00,0.0761693332313,0,0.5
2014-07-02 03:30:00,0.0644823802598,0,0.5
2014-07-02 04:00:00,0.0653754880196,0,0.5
2014-07-02 04:30:00,0.0632065120314,0,0.5
2014-07-02 05:00:00,0.0729796626604,0,0.5
2014-07-02 05:30:00,0.114164689071,0,0.5
2014-07-02 06:00:00,0.173007731761,0,0.5
2014-07-02 06:30:00,0.282477225752,0,0.5
2014-07-02 07:00:00,0.350123759218,0,0.5
2014-07-02 07:30:00,0.425935849345,0,0.5
2014-07-02 08:00:00,0.488606496721,0,0.5
2014-07-02 08:30:00,0.508943836281,0,0.5
2014-07-02 09:00:00,0.497435504861,0,0.5
2014-07-02 09:30:00,0.484472683661,0,0.5
2014-07-02 10:00:00,0.441526959096,0,0.5
2014-07-02 10:30:00,0.456658756284,0,0.5
2014-07-02 11:00:00,0.436984868203,0,0.5
2014-07-02 11:30:00,0.474138151012,0,0.5
2014-07-02 12:00:00,0.488045114701,0,0.5
2014-07-02 12:30:00,0.491234785271,0,0.5
2014-07-02 13:00:00,0.476128505448,0,0.5
2014-07-02 13:30:00,0.486616142285,0,0.5
2014-07-02 14:00:00,0.473040904335,0,0.5
2014-07-02 14:30:00,0.47424022047,0,0.5
2014-07-02 15:00:00,0.458266350251,0,0.5
2014-07-02 15:30:00,0.423996529638,0,0.5
2014-07-02 16:00:00,0.373216974151,0,0.5
2014-07-02 16:30:00,0.354181020184,0,0.5
2014-07-02 17:00:00,0.444563525479,0,0.5
2014-07-02 17:30:00,0.559110975019,0,0.5
2014-07-02 18:00:00,0.602847737886,0,0.5
2014-07-02 18:30:00,0.62527750134,0,0.5
2014-07-02 19:00:00,0.634846513052,0,0.5
2014-07-02 19:30:00,0.685498481717,0,0.5
2014-07-02 20:00:00,0.561407537829,0,0.5
2014-07-02 20:30:00,0.465717420705,0,0.5
2014-07-02 21:00:00,0.531679808109,0,0.5
2014-07-02 21:30:00,0.575875883539,0,0.5
2014-07-02 22:00:00,0.57141034474,0,0.5
2014-07-02 22:30:00,0.486054760264,0,0.5
2014-07-02 23:00:00,0.446809053561,0,0.5
2014-07-02 23:30:00,0.390390160504,0,0.5
2014-07-03 00:00:00,0.322488453393,0,0.5
2014-07-03 00:30:00,0.269310265636,0,0.5
2014-07-03 01:00:00,0.214550001276,0,0.5
2014-07-03 01:30:00,0.180918114777,0,0.5
2014-07-03 02:00:00,0.148460027048,0,0.5
2014-07-03 02:30:00,0.111638469979,0,0.5
2014-07-03 03:00:00,0.0832376432162,0,0.5
2014-07-03 03:30:00,0.0750210518258,0,0.5
2014-07-03 04:00:00,0.08007349001,0,0.5
2014-07-03 04:30:00,0.0783127918549,0,0.5
2014-07-03 05:00:00,0.0763479547832,0,0.5
2014-07-03 05:30:00,0.116971599173,0,0.5
2014-07-03 06:00:00,0.165301487662,0,0.5
2014-07-03 06:30:00,0.257852968945,0,0.5
2014-07-03 07:00:00,0.312128403378,0,0.5
2014-07-03 07:30:00,0.371685932277,0,0.5
2014-07-03 08:00:00,0.427926203782,0,0.5
2014-07-03 08:30:00,0.482329225038,0,0.5
2014-07-03 09:00:00,0.46803950088,0,0.5
2014-07-03 09:30:00,0.439153844191,0,0.5
2014-07-03 10:00:00,0.410548878512,0,0.5
2014-07-03 10:30:00,0.418510296257,0,0.5
2014-07-03 11:00:00,0.40534333614,0,0.5
2014-07-03 11:30:00,0.427926203782,0,0.5
2014-07-03 12:00:00,0.449003546914,0,0.5
2014-07-03 12:30:00,0.476077470719,0,0.5
2014-07-03 13:00:00,0.485774069254,0,0.5
2014-07-03 13:30:00,0.491285820001,0,0.5
2014-07-03 14:00:00,0.493888591186,0,0.5
2014-07-03 14:30:00,0.486616142285,0,0.5
2014-07-03 15:00:00,0.464033274643,0,0.5
2014-07-03 15:30:00,0.424277220649,0,0.5
2014-07-03 16:00:00,0.372732144224,0,0.5
2014-07-03 16:30:00,0.350889280155,0,0.5
2014-07-03 17:00:00,0.433795197632,0,0.5
2014-07-03 17:30:00,0.499808619766,0,0.5
2014-07-03 18:00:00,0.54403021256,0,0.5
2014-07-03 18:30:00,0.578044859527,0,0.5
2014-07-03 19:00:00,0.764934037613,0,0.5
2014-07-03 19:30:00,0.54844471663,0,0.5
2014-07-03 20:00:00,0.578631758912,0,0.5
2014-07-03 20:30:00,0.565975146087,0,0.5
2014-07-03 21:00:00,0.578095894256,0,0.5
2014-07-03 21:30:00,0.499247237745,0,0.5
2014-07-03 22:00:00,0.437061420297,0,0.5
2014-07-03 22:30:00,0.423537217076,0,0.5
2014-07-03 23:00:00,0.412309576667,0,0.5
2014-07-03 23:30:00,0.40858404144,0,0.5
2014-07-04 00:00:00,0.397637092041,0,0.5
2014-07-04 00:30:00,0.367118324019,0,0.5
2014-07-04 01:00:00,0.319656025926,0,0.5
2014-07-04 01:30:00,0.289188292633,0,0.5
2014-07-04 02:00:00,0.254459159458,0,0.5
2014-07-04 02:30:00,0.214243792901,0,0.5
2014-07-04 03:00:00,0.183520885963,0,0.5
2014-07-04 03:30:00,0.167649085202,0,0.5
2014-07-04 04:00:00,0.144147592437,0,0.5
2014-07-04 04:30:00,0.113960550154,0,0.5
2014-07-04 05:00:00,0.0880604251193,0,0.5
2014-07-04 05:30:00,0.0833907474036,0,0.5
2014-07-04 06:00:00,0.0915307867003,0,0.5
2014-07-04 06:30:00,0.107989486846,0,0.5
2014-07-04 07:00:00,0.122993697211,0,0.5
2014-07-04 07:30:00,0.125494398938,0,0.5
2014-07-04 08:00:00,0.13159304907,0,0.5
2014-07-04 08:30:00,0.14718415882,0,0.5
2014-07-04 09:00:00,0.187042282273,0,0.5
2014-07-04 09:30:00,0.199826481921,0,0.5
2014-07-04 10:00:00,0.219832095741,0,0.5
2014-07-04 10:30:00,0.248105335681,0,0.5
2014-07-04 11:00:00,0.281099288066,0,0.5
2014-07-04 11:30:00,0.337416111664,0,0.5
2014-07-04 12:00:00,0.347163744928,0,0.5
2014-07-04 12:30:00,0.350327898135,0,0.5
2014-07-04 13:00:00,0.397203296844,0,0.5
2014-07-04 13:30:00,0.362805889408,0,0.5
2014-07-04 14:00:00,0.471356758274,0,0.5
2014-07-04 14:30:00,0.465870524892,0,0.5
2014-07-04 15:00:00,0.422746178775,0,0.5
2014-07-04 15:30:00,0.418714435173,0,0.5
2014-07-04 16:00:00,0.374977672306,0,0.5
2014-07-04 16:30:00,0.343489244431,0,0.5
2014-07-04 17:00:00,0.308683559162,0,0.5
2014-07-04 17:30:00,0.297736609763,0,0.5
2014-07-04 18:00:00,0.394983286126,0,0.5
2014-07-04 18:30:00,0.384521166654,0,0.5
2014-07-04 19:00:00,0.382530812218,0,0.5
2014-07-04 19:30:00,0.36946592156,0,0.5
2014-07-04 20:00:00,0.367628671311,0,0.5
2014-07-04 20:30:00,0.351833422644,0,0.5
2014-07-04 21:00:00,0.35795759014,0,0.5
2014-07-04 21:30:00,0.357574829672,0,0.5
2014-07-04 22:00:00,0.39768812677,0,0.5
2014-07-04 22:30:00,0.423103421879,0,0.5
2014-07-04 23:00:00,0.458700145449,0,0.5
2014-07-04 23:30:00,0.460001531042,0,0.5
2014-07-05 00:00:00,0.448289060706,0,0.5
2014-07-05 00:30:00,0.412896476052,0,0.5
2014-07-05 01:00:00,0.36829212279,0,0.5
2014-07-05 01:30:00,0.319656025926,0,0.5
2014-07-05 02:00:00,0.280639975503,0,0.5
2014-07-05 02:30:00,0.233305264232,0,0.5
2014-07-05 03:00:00,0.204189951262,0,0.5
2014-07-05 03:30:00,0.180867080048,0,0.5
2014-07-05 04:00:00,0.163285615862,0,0.5
2014-07-05 04:30:00,0.112608129832,0,0.5
2014-07-05 05:00:00,0.0795631427186,0,0.5
2014-07-05 05:30:00,0.0639465156039,0,0.5
2014-07-05 06:00:00,0.0648651407283,0,0.5
2014-07-05 06:30:00,0.0801245247391,0,0.5
2014-07-05 07:00:00,0.093138380668,0,0.5
2014-07-05 07:30:00,0.110668810125,0,0.5
2014-07-05 08:00:00,0.119268161984,0,0.5
2014-07-05 08:30:00,0.159228354896,0,0.5
2014-07-05 09:00:00,0.190002296563,0,0.5
2014-07-05 09:30:00,0.229707315828,0,0.5
2014-07-05 10:00:00,0.262114368828,0,0.5
2014-07-05 10:30:00,0.292939345224,0,0.5
2014-07-05 11:00:00,0.295669703233,0,0.5
2014-07-05 11:30:00,0.334022302177,0,0.5
2014-07-05 12:00:00,0.321901554008,0,0.5
2014-07-05 12:30:00,0.332312638751,0,0.5
2014-07-05 13:00:00,0.33823266733,0,0.5
2014-07-05 13:30:00,0.340427160683,0,0.5
2014-07-05 14:00:00,0.352496874123,0,0.5
2014-07-05 14:30:00,0.349792033479,0,0.5
2014-07-05 15:00:00,0.354972058486,0,0.5
2014-07-05 15:30:00,0.362218990023,0,0.5
2014-07-05 16:00:00,0.336089208707,0,0.5
2014-07-05 16:30:00,0.349587894562,0,0.5
2014-07-05 17:00:00,0.354410676465,0,0.5
2014-07-05 17:30:00,0.375921814795,0,0.5
2014-07-05 18:00:00,0.371711449641,0,0.5
2014-07-05 18:30:00,0.410242670137,0,0.5
2014-07-05 19:00:00,0.463752583633,0,0.5
2014-07-05 19:30:00,0.430044145041,0,0.5
2014-07-05 20:00:00,0.360611396055,0,0.5
2014-07-05 20:30:00,0.369210747914,0,0.5
2014-07-05 21:00:00,0.3900329174,0,0.5
2014-07-05 21:30:00,0.394217765189,0,0.5
2014-07-05 22:00:00,0.409298527648,0,0.5
2014-07-05 22:30:00,0.445762841614,0,0.5
2014-07-05 23:00:00,0.418050983694,0,0.5
2014-07-05 23:30:00,0.433744162903,0,0.5
2014-07-06 00:00:00,0.393452244252,0,0.5
2014-07-06 00:30:00,0.372732144224,0,0.5
2014-07-06 01:00:00,0.334685753655,0,0.5
2014-07-06 01:30:00,0.311669090816,0,0.5
2014-07-06 02:00:00,0.283906198168,0,0.5
2014-07-06 02:30:00,0.233152160045,0,0.5
2014-07-06 03:00:00,0.219857613106,0,0.5
2014-07-06 03:30:00,0.201000280691,0,0.5
2014-07-06 04:00:00,0.182678812932,0,0.5
2014-07-06 04:30:00,0.122406797826,0,0.5
2014-07-06 05:00:00,0.0789762433336,0,0.5
2014-07-06 05:30:00,0.0679527418408,0,0.5
2014-07-06 06:00:00,0.0638444461456,0,0.5
2014-07-06 06:30:00,0.0742300135242,0,0.5
2014-07-06 07:00:00,0.0811707366863,0,0.5
2014-07-06 07:30:00,0.104595677358,0,0.5
2014-07-06 08:00:00,0.104978437827,0,0.5
2014-07-06 08:30:00,0.144071040343,0,0.5
2014-07-06 09:00:00,0.162086299727,0,0.5
2014-07-06 09:30:00,0.21429482763,0,0.5
2014-07-06 10:00:00,0.238944601802,0,0.5
2014-07-06 10:30:00,0.282196534742,0,0.5
2014-07-06 11:00:00,0.295669703233,0,0.5
2014-07-06 11:30:00,0.329199520274,0,0.5
2014-07-06 12:00:00,0.349766516114,0,0.5
2014-07-06 12:30:00,0.348056852688,0,0.5
2014-07-06 13:00:00,0.364592104927,0,0.5
2014-07-06 13:30:00,0.37740182194,0,0.5
2014-07-06 14:00:00,0.394626043022,0,0.5
2014-07-06 14:30:00,0.408890249815,0,0.5
2014-07-06 15:00:00,0.373905942994,0,0.5
2014-07-06 15:30:00,0.378371481793,0,0.5
2014-07-06 16:00:00,0.349383755646,0,0.5
2014-07-06 16:30:00,0.371456275996,0,0.5
2014-07-06 17:00:00,0.392559136492,0,0.5
2014-07-06 17:30:00,0.430171731864,0,0.5
2014-07-06 18:00:00,0.430860700707,0,0.5
2014-07-06 18:30:00,0.430452422874,0,0.5
2014-07-06 19:00:00,0.43422899283,0,0.5
2014-07-06 19:30:00,0.405113679859,0,0.5
2014-07-06 20:00:00,0.36946592156,0,0.5
2014-07-06 20:30:00,0.361096225982,0,0.5
2014-07-06 21:00:00,0.411518538365,0,0.5
2014-07-06 21:30:00,0.412284059302,0,0.5
2014-07-06 22:00:00,0.35767689913,0,0.5
2014-07-06 22:30:00,0.356273444079,0,0.5
2014-07-06 23:00:00,0.336574038633,0,0.5
2014-07-06 23:30:00,0.289545535737,0,0.5
2014-07-07 00:00:00,0.221158998699,0,0.5
2014-07-07 00:30:00,0.183010538672,0,0.5
2014-07-07 01:00:00,0.131924774809,0,0.5
2014-07-07 01:30:00,0.093138380668,0,0.5
2014-07-07 02:00:00,0.0809665977698,0,0.5
2014-07-07 02:30:00,0.0610885707724,0,0.5
2014-07-07 03:00:00,0.0494016178009,0,0.5
2014-07-07 03:30:00,0.047691954375,0,0.5
2014-07-07 04:00:00,0.0573885529103,0,0.5
2014-07-07 04:30:00,0.0579754522953,0,0.5
2014-07-07 05:00:00,0.0655030748424,0,0.5
2014-07-07 05:30:00,0.106305340784,0,0.5
2014-07-07 06:00:00,0.161729056623,0,0.5
2014-07-07 06:30:00,0.270126821302,0,0.5
2014-07-07 07:00:00,0.322131210289,0,0.5
2014-07-07 07:30:00,0.379825971574,0,0.5
2014-07-07 08:00:00,0.420066855495,0,0.5
2014-07-07 08:30:00,0.484574753119,0,0.5
2014-07-07 09:00:00,0.453800811452,0,0.5
2014-07-07 09:30:00,0.418178570517,0,0.5
2014-07-07 10:00:00,0.36030518768,0,0.5
2014-07-07 10:30:00,0.361147260711,0,0.5
2014-07-07 11:00:00,0.360968639159,0,0.5
2014-07-07 11:30:00,0.38444461456,0,0.5
2014-07-07 12:00:00,0.387353594121,0,0.5
2014-07-07 12:30:00,0.394881216668,0,0.5
2014-07-07 13:00:00,0.391181198806,0,0.5
2014-07-07 13:30:00,0.414248896374,0,0.5
2014-07-07 14:00:00,0.422848248233,0,0.5
2014-07-07 14:30:00,0.43065656179,0,0.5
2014-07-07 15:00:00,0.429100002552,0,0.5
2014-07-07 15:30:00,0.414146826916,0,0.5
2014-07-07 16:00:00,0.400469519508,0,0.5
2014-07-07 16:30:00,0.385924621705,0,0.5
2014-07-07 17:00:00,0.446349740999,0,0.5
2014-07-07 17:30:00,0.488887187731,0,0.5
2014-07-07 18:00:00,0.545816428079,0,0.5
2014-07-07 18:30:00,0.570925514813,0,0.5
2014-07-07 19:00:00,0.568067569981,0,0.5
2014-07-07 19:30:00,0.524815637041,0,0.5
2014-07-07 20:00:00,0.480134731685,0,0.5
2014-07-07 20:30:00,0.456786343106,0,0.5
2014-07-07 21:00:00,0.502666564597,0,0.5
2014-07-07 21:30:00,0.48630993391,0,0.5
2014-07-07 22:00:00,0.452856668963,0,0.5
2014-07-07 22:30:00,0.422950317691,0,0.5
2014-07-07 23:00:00,0.381408048177,0,0.5
2014-07-07 23:30:00,0.302151113833,0,0.5
2014-07-08 00:00:00,0.236903212636,0,0.5
2014-07-08 00:30:00,0.206741687718,0,0.5
2014-07-08 01:00:00,0.187399525377,0,0.5
2014-07-08 01:30:00,0.12863303478,0,0.5
2014-07-08 02:00:00,0.0878562862028,0,0.5
2014-07-08 02:30:00,0.0626961647401,0,0.5
2014-07-08 03:00:00,0.0540202607875,0,0.5
2014-07-08 03:30:00,0.047691954375,0,0.5
2014-07-08 04:00:00,0.0525912883717,0,0.5
2014-07-08 04:30:00,0.052871979382,0,0.5
2014-07-08 05:00:00,0.0603996019291,0,0.5
2014-07-08 05:30:00,0.109597080813,0,0.5
2014-07-08 06:00:00,0.166602873255,0,0.5
2014-07-08 06:30:00,0.288933118987,0,0.5
2014-07-08 07:00:00,0.345938911429,0,0.5
2014-07-08 07:30:00,0.419684095027,0,0.5
2014-07-08 08:00:00,0.467018806298,0,0.5
2014-07-08 08:30:00,0.51749215341,0,0.5
2014-07-08 09:00:00,0.499017581464,0,0.5
2014-07-08 09:30:00,0.494322386384,0,0.5
2014-07-08 10:00:00,0.421010997984,0,0.5
2014-07-08 10:30:00,0.432034499477,0,0.5
2014-07-08 11:00:00,0.410957156345,0,0.5
2014-07-08 11:30:00,0.447293883488,0,0.5
2014-07-08 12:00:00,0.46217050703,0,0.5
2014-07-08 12:30:00,0.460078083136,0,0.5
2014-07-08 13:00:00,0.455791165888,0,0.5
2014-07-08 13:30:00,0.470004337952,0,0.5
2014-07-08 14:00:00,0.483885784276,0,0.5
2014-07-08 14:30:00,0.486437520733,0,0.5
2014-07-08 15:00:00,0.475592640792,0,0.5
2014-07-08 15:30:00,0.464951899768,0,0.5
2014-07-08 16:00:00,0.407486794764,0,0.5
2014-07-08 16:30:00,0.383219781061,0,0.5
2014-07-08 17:00:00,0.443746969813,0,0.5
2014-07-08 17:30:00,0.532215672765,0,0.5
2014-07-08 18:00:00,0.609022940111,0,0.5
2014-07-08 18:30:00,0.645130010972,0,0.5
2014-07-08 19:00:00,0.650743831177,0,0.5
2014-07-08 19:30:00,0.625864400725,0,0.5
2014-07-08 20:00:00,0.559187527112,0,0.5
2014-07-08 20:30:00,0.513026614611,0,0.5
2014-07-08 21:00:00,0.563193753349,0,0.5
2014-07-08 21:30:00,0.589527673582,0,0.5
2014-07-08 22:00:00,0.643063104443,0,0.5
2014-07-08 22:30:00,0.560616499528,0,0.5
2014-07-08 23:00:00,0.467273979943,0,0.5
2014-07-08 23:30:00,0.379519763199,0,0.5
2014-07-09 00:00:00,0.307356656205,0,0.5
2014-07-09 00:30:00,0.23988874429,0,0.5
2014-07-09 01:00:00,0.197300262829,0,0.5
2014-07-09 01:30:00,0.140855852408,0,0.5
2014-07-09 02:00:00,0.118885401516,0,0.515708487498
2014-07-09 02:30:00,0.0825231570083,0,0.620629128238
2014-07-09 03:00:00,0.0681313633928,0,0.758060807581
2014-07-09 03:30:00,0.0602720151063,0,0.851304704901
2014-07-09 04:00:00,0.0629513383858,0,0.906312637475
2014-07-09 04:30:00,0.0585878690449,0,0.937942730268
2014-07-09 05:00:00,0.0633596162188,0,0.955855533797
2014-07-09 05:30:00,0.104850851004,0,0.963815275082
2014-07-09 06:00:00,0.164000102069,0,0.965585943625
2014-07-09 06:30:00,0.282196534742,0,0.957550782275
2014-07-09 07:00:00,0.341320268443,0,0.941899279862
2014-07-09 07:30:00,0.438541427441,0,0.907843806703
2014-07-09 08:00:00,0.472122279211,0,0.812298278659
2014-07-09 08:30:00,0.521983209574,0,0.719756061606
2014-07-09 09:00:00,0.504452780117,0,0.614533771919
2014-07-09 09:30:00,0.4827885376,0,0.504625842168
2014-07-09 10:00:00,0.439791778305,0,0.59347128743
2014-07-09 10:30:00,0.446094567353,0,0.677734343796
2014-07-09 11:00:00,0.422312383577,0,0.736178301334
2014-07-09 11:30:00,0.454770471306,0,0.771966427281
2014-07-09 12:00:00,0.464288448289,0,0.795705108823
2014-07-09 12:30:00,0.462323611217,0,0.800120286915
2014-07-09 13:00:00,0.462221541759,0,0.798289223281
2014-07-09 13:30:00,0.471560897191,0,0.788809243306
2014-07-09 14:00:00,0.471535379826,0,0.782481971302
2014-07-09 14:30:00,0.472938834877,0,0.780567637323
2014-07-09 15:00:00,0.465232590778,0,0.785492382174
2014-07-09 15:30:00,0.44361938299,0,0.785016084846
2014-07-09 16:00:00,0.387021868381,0,0.778158660855
2014-07-09 16:30:00,0.391742580826,0,0.765605910338
2014-07-09 17:00:00,0.436219347266,0,0.759891585655
2014-07-09 17:30:00,0.49894102937,0,0.767331114067
2014-07-09 18:00:00,0.567863431065,0,0.7880596121
2014-07-09 18:30:00,0.630712699992,0,0.817159229837
2014-07-09 19:00:00,0.663119752992,0,0.848694751968
2014-07-09 19:30:00,0.671387379111,0,0.87730801332
2014-07-09 20:00:00,0.637602388425,0,0.898886236977
2014-07-09 20:30:00,0.523769425094,0,0.907919532701
2014-07-09 21:00:00,0.598382199086,0,0.928858783567
2014-07-09 21:30:00,0.629589935951,0,0.947821932436
2014-07-09 22:00:00,0.611064329276,0,0.959010739715
2014-07-09 22:30:00,0.603409119906,0,0.964709757097
2014-07-09 23:00:00,0.558524075633,0,0.964228263457
2014-07-09 23:30:00,0.493250657072,0,0.956498290266
2014-07-10 00:00:00,0.387277042027,0,0.93694621384
2014-07-10 00:30:00,0.292199341652,0,0.899681310818
2014-07-10 01:00:00,0.225547985404,0,0.843316593757
2014-07-10 01:30:00,0.167700119932,0,0.780393580479
2014-07-10 02:00:00,0.133685472964,0,0.679848513258
2014-07-10 02:30:00,0.10510602465,0,0.548402361088
2014-07-10 03:00:00,0.0875755951925,0,0.58837526218
2014-07-10 03:30:00,0.0752507081069,0,0.716148756907
2014-07-10 04:00:00,0.070708617214,0,0.814050585319
2014-07-10 04:30:00,0.0644058281661,0,0.880111175313
2014-07-10 05:00:00,0.0691520579755,0,0.91700370393
2014-07-10 05:30:00,0.11332261604,0,0.933590858826
2014-07-10 06:00:00,0.168235984588,0,0.938323436548
2014-07-10 06:30:00,0.285641378958,0,0.928283297349
2014-07-10 07:00:00,0.355354818954,0,0.906087053281
2014-07-10 07:30:00,0.438082114879,0,0.863809877567
2014-07-10 08:00:00,0.486080277629,0,0.798133279911
2014-07-10 08:30:00,0.538518461813,0,0.701828197199
2014-07-10 09:00:00,0.507132103396,0,0.595629606913
2014-07-10 09:30:00,0.485238204598,0,0.514075463295
2014-07-10 10:00:00,0.433310367705,0,0.608449284511
2014-07-10 10:30:00,0.43305519406,0,0.686513637138
2014-07-10 11:00:00,0.417795810049,0,0.742302091555
2014-07-10 11:30:00,0.454387710837,0,0.776870733533
2014-07-10 12:00:00,0.459848426854,0,0.796880845392
2014-07-10 12:30:00,0.446222154176,0,0.798393314387
2014-07-10 13:00:00,0.435504861058,0,0.788887037872
2014-07-10 13:30:00,0.465079486591,0,0.774625579903
2014-07-10 14:00:00,0.461430503458,0,0.765482042507
2014-07-10 14:30:00,0.471739518743,0,0.76274261308
2014-07-10 15:00:00,0.446936640384,0,0.765507851291
2014-07-10 15:30:00,0.426293092449,0,0.764137822547
2014-07-10 16:00:00,0.375794227972,0,0.755530095126
2014-07-10 16:30:00,0.347087192835,0,0.732792972611
2014-07-10 17:00:00,0.415473729873,0,0.723087400806
2014-07-10 17:30:00,0.488504427263,0,0.732339206354
2014-07-10 18:00:00,0.557733037332,0,0.758178345047
2014-07-10 18:30:00,0.621067136186,0,0.789086309774
2014-07-10 19:00:00,0.667993569624,0,0.826233624481
2014-07-10 19:30:00,0.659470769859,0,0.856133002265
2014-07-10 20:00:00,0.612085023859,0,0.879390044247
2014-07-10 20:30:00,0.552604047054,0,0.895294279397
2014-07-10 21:00:00,0.638418944091,0,0.923391822101
2014-07-10 21:30:00,0.648727959376,0,0.948136964031
2014-07-10 22:00:00,0.654137640664,0,0.962815619662
2014-07-10 22:30:00,0.628900967108,0,0.969731574824
2014-07-10 23:00:00,0.590624920258,0,0.971187496325
2014-07-10 23:30:00,0.557682002603,0,0.968327864375
2014-07-11 00:00:00,0.511444538008,0,0.96025022136
2014-07-11 00:30:00,0.411186812626,0,0.944079353359
2014-07-11 01:00:00,0.334251958458,0,0.920267265994
2014-07-11 01:30:00,0.26788129322,0,0.888621826249
2014-07-11 02:00:00,0.215264487484,0,0.82648380747
2014-07-11 02:30:00,0.175253259843,0,0.73510553052
2014-07-11 03:00:00,0.136951695629,0,0.61313084323
2014-07-11 03:30:00,0.111204674781,0,0.521407963672
2014-07-11 04:00:00,0.106534997066,0,0.645320140142
2014-07-11 04:30:00,0.0827017785603,0,0.753561826452
2014-07-11 05:00:00,0.0797672816352,0,0.834033653477
2014-07-11 05:30:00,0.117686085381,0,0.877717743266
2014-07-11 06:00:00,0.171400137794,0,0.898131618858
2014-07-11 06:30:00,0.271581311082,0,0.897697194513
2014-07-11 07:00:00,0.33029676695,0,0.883512306049
2014-07-11 07:30:00,0.403174360152,0,0.851415385175
2014-07-11 08:00:00,0.448008369696,0,0.798852130758
2014-07-11 08:30:00,0.504631401669,0,0.718452046563
2014-07-11 09:00:00,0.502462425681,0,0.62450040191
2014-07-11 09:30:00,0.47602643599,0,0.523169640646
2014-07-11 10:00:00,0.421062032713,0,0.516274900756
2014-07-11 10:30:00,0.423384112889,0,0.564088992131
2014-07-11 11:00:00,0.398785373447,0,0.622369219745
2014-07-11 11:30:00,0.444665594937,0,0.665006480203
2014-07-11 12:00:00,0.450636658246,0,0.693481734409
2014-07-11 12:30:00,0.436755211922,0,0.701232986267
2014-07-11 13:00:00,0.436755211922,0,0.6986454202
2014-07-11 13:30:00,0.446069049989,0,0.685019818015
2014-07-11 14:00:00,0.468575365536,0,0.677017159918
2014-07-11 14:30:00,0.468830539182,0,0.675307034136
2014-07-11 15:00:00,0.456505652096,0,0.683693927594
2014-07-11 15:30:00,0.417004771747,0,0.682191200443
2014-07-11 16:00:00,0.374594911838,0,0.676465717416
2014-07-11 16:30:00,0.362831406772,0,0.656791905164
2014-07-11 17:00:00,0.431651739008,0,0.652163851345
2014-07-11 17:30:00,0.508918318916,0,0.669628952138
2014-07-11 18:00:00,0.578146928985,0,0.702771314935
2014-07-11 18:30:00,0.598560820638,0,0.736707346388
2014-07-11 19:00:00,0.640562402715,0,0.772455607039
2014-07-11 19:30:00,0.611804332849,0,0.799967029056
2014-07-11 20:00:00,0.553548189543,0,0.81744617047
2014-07-11 20:30:00,0.525249432239,0,0.835778571921
2014-07-11 21:00:00,0.577253821225,0,0.866773663854
2014-07-11 21:30:00,0.582969710888,0,0.895594418041
2014-07-11 22:00:00,0.609456735308,0,0.915344252575
2014-07-11 22:30:00,0.636683763301,0,0.927704756998
2014-07-11 23:00:00,0.664242517033,0,0.935220196044
2014-07-11 23:30:00,0.685523999081,0,0.942180818133
2014-07-12 00:00:00,0.659955599786,0,0.943649831515
2014-07-12 00:30:00,0.634514787313,0,0.945332547913
2014-07-12 01:00:00,0.592895965705,0,0.94815369429
2014-07-12 01:30:00,0.5528592207,0,0.950063250416
2014-07-12 02:00:00,0.490265125418,0,0.943850453487
2014-07-12 02:30:00,0.411646125188,0,0.929846839839
2014-07-12 03:00:00,0.340988542703,0,0.902704960636
2014-07-12 03:30:00,0.30705044783,0,0.859737474097
2014-07-12 04:00:00,0.262650233484,0,0.792056320787
2014-07-12 04:30:00,0.164944244558,0,0.680582967956
2014-07-12 05:00:00,0.114802623185,0,0.543332350073
2014-07-12 05:30:00,0.0937507974176,0,0.598227612504
2014-07-12 06:00:00,0.0871162826303,0,0.720128248581
2014-07-12 06:30:00,0.11600193932,0,0.808424760873
2014-07-12 07:00:00,0.136237209421,0,0.865683609994
2014-07-12 07:30:00,0.174666360458,0,0.89669208171
2014-07-12 08:00:00,0.181147771058,0,0.914441710686
2014-07-12 08:30:00,0.241266681977,0,0.921043583971
2014-07-12 09:00:00,0.281048253336,0,0.919237340347
2014-07-12 09:30:00,0.341549924724,0,0.900284557602
2014-07-12 10:00:00,0.345989946158,0,0.870824210164
2014-07-12 10:30:00,0.394090178366,0,0.824251203423
2014-07-12 11:00:00,0.39595294598,0,0.766528460523
2014-07-12 11:30:00,0.437801423869,0,0.696605838903
2014-07-12 12:00:00,0.440302125596,0,0.623084613366
2014-07-12 12:30:00,0.469774681671,0,0.5471420349
2014-07-12 13:00:00,0.473857460002,0,0.529939674904
2014-07-12 13:30:00,0.478552655082,0,0.591742620164
2014-07-12 14:00:00,0.461047742989,0,0.6372281196
2014-07-12 14:30:00,0.47452091148,0,0.669665633306
2014-07-12 15:00:00,0.473908494731,0,0.699714527544
2014-07-12 15:30:00,0.492434101406,0,0.721939275868
2014-07-12 16:00:00,0.462680854321,0,0.736547565992
2014-07-12 16:30:00,0.445201459593,0,0.73814313957
2014-07-12 17:00:00,0.484115440557,0,0.747487450521
2014-07-12 17:30:00,0.539539156396,0,0.761995944207
2014-07-12 18:00:00,0.573502768634,0,0.781901381536
2014-07-12 18:30:00,0.574804154227,0,0.800184287716
2014-07-12 19:00:00,0.581617290566,0,0.821738196422
2014-07-12 19:30:00,0.564163413203,0,0.836774639441
2014-07-12 20:00:00,0.506672790834,0,0.84205854563
2014-07-12 20:30:00,0.497231365945,0,0.842822668909
2014-07-12 21:00:00,0.525632192707,0,0.852624224055
2014-07-12 21:30:00,0.526142539998,0,0.864612452071
2014-07-12 22:00:00,0.553675776366,0,0.874366625928
2014-07-12 22:30:00,0.618413330271,0,0.88482070438
2014-07-12 23:00:00,0.64293551762,0,0.893498423706
2014-07-12 23:30:00,0.656919033402,0,0.903139623876
2014-07-13 00:00:00,0.657939727985,0,0.911511389305
2014-07-13 00:30:00,0.638572048279,0,0.91914231045
2014-07-13 01:00:00,0.610553981985,0,0.928950575344
2014-07-13 01:30:00,0.546888157391,0,0.933303681164
2014-07-13 02:00:00,0.496567914466,0,0.930781563725
2014-07-13 02:30:00,0.423945494909,0,0.921327357098
2014-07-13 03:00:00,0.36941488683,0,0.901857635871
2014-07-13 03:30:00,0.33085814897,0,0.864781240116
2014-07-13 04:00:00,0.285360687948,0,0.806645113107
2014-07-13 04:30:00,0.176146367603,0,0.708042724953
2014-07-13 05:00:00,0.112327438822,0,0.574120680642
2014-07-13 05:30:00,0.0882645640358,0,0.570257819607
2014-07-13 06:00:00,0.0872949041823,0,0.69953016633
2014-07-13 06:30:00,0.0916328561586,0,0.795058484296
2014-07-13 07:00:00,0.091020439409,0,0.862644677015
2014-07-13 07:30:00,0.116078491413,0,0.90248882101
2014-07-13 08:00:00,0.133583403506,0,0.926723315095
2014-07-13 08:30:00,0.167904258848,0,0.940569410978
2014-07-13 09:00:00,0.204164433897,0,0.946656493122
2014-07-13 09:30:00,0.273928908622,0,0.939261451522
2014-07-13 10:00:00,0.344892699482,0,0.918463932853
2014-07-13 10:30:00,0.412641302406,0,0.881061631852
2014-07-13 11:00:00,0.380132179948,0,0.838096310448
2014-07-13 11:30:00,0.431447600092,0,0.776955789977
2014-07-13 12:00:00,0.43568348261,0,0.741444830958
2014-07-13 12:30:00,0.474571946209,0,0.65916783928
2014-07-13 13:00:00,0.482967159152,0,0.570881169697
2014-07-13 13:30:00,0.514608691214,0,0.520409431032
2014-07-13 14:00:00,0.566766184388,0,0.614672138031
2014-07-13 14:30:00,0.583326953992,0,0.690260696022
2014-07-13 15:00:00,0.519712164128,0,0.72988377974
2014-07-13 15:30:00,0.471586414555,0,0.74264809703
2014-07-13 16:00:00,0.412845441323,0,0.749594303669
2014-07-13 16:30:00,0.357421725484,0,0.733734977999
2014-07-13 17:00:00,0.363698997168,0,0.717839906775
2014-07-13 17:30:00,0.512210058945,0,0.726207677023
2014-07-13 18:00:00,0.548495751359,0,0.740476920473
2014-07-13 18:30:00,0.50631554773,0,0.738692493485
2014-07-13 19:00:00,0.468881573911,0,0.71716520311
2014-07-13 19:30:00,0.449922172038,0,0.686523046815
2014-07-13 20:00:00,0.413815101176,0,0.661232454069
2014-07-13 20:30:00,0.396999157927,0,0.642963659387
2014-07-13 21:00:00,0.435836586797,0,0.648632322512
2014-07-13 21:30:00,0.432774503049,0,0.666974913746
2014-07-13 22:00:00,0.38947153538,0,0.673160632338
2014-07-13 22:30:00,0.36063691342,0,0.636152493627
2014-07-13 23:00:00,0.327719513129,0,0.57998714485
2014-07-13 23:30:00,0.353900329174,0,0.540160568646
2014-07-14 00:00:00,0.318354640333,0,0.500425863225
2014-07-14 00:30:00,0.230396284672,0,0.557422097854
2014-07-14 01:00:00,0.188445737324,0,0.615549819509
2014-07-14 01:30:00,0.13187374008,0,0.680658640941
2014-07-14 02:00:00,0.0885707724106,0,0.757946614562
2014-07-14 02:30:00,0.0700962004644,0,0.826416734955
2014-07-14 03:00:00,0.0515195590599,0,0.877807742405
2014-07-14 03:30:00,0.0449360790018,0,0.915177776175
2014-07-14 04:00:00,0.0531526703922,0,0.940066589086
2014-07-14 04:30:00,0.064941692822,0,0.95966897272
2014-07-14 05:00:00,0.0725969021919,0,0.971917181367
2014-07-14 05:30:00,0.123172318763,0,0.976194120354
2014-07-14 06:00:00,0.168287019317,0,0.976933738832
2014-07-14 06:30:00,0.286355865166,0,0.970740280424
2014-07-14 07:00:00,0.341600959453,0,0.957652892257
2014-07-14 07:30:00,0.399142616551,0,0.93396387332
2014-07-14 08:00:00,0.44892699482,0,0.892987675103
2014-07-14 08:30:00,0.479981627498,0,0.8300143557
2014-07-14 09:00:00,0.472249866034,0,0.750619380092
2014-07-14 09:30:00,0.432876572508,0,0.667336112751
2014-07-14 10:00:00,0.390619816785,0,0.587757580862
2014-07-14 10:30:00,0.408150246243,0,0.513120503907
2014-07-14 11:00:00,0.377912169231,0,0.542227669422
2014-07-14 11:30:00,0.398121921968,0,0.571473635074
2014-07-14 12:00:00,0.421751001557,0,0.592216914014
2014-07-14 12:30:00,0.411977850928,0,0.595516449098
2014-07-14 13:00:00,0.396539845365,0,0.582009136643
2014-07-14 13:30:00,0.420832376432,0,0.566642001786
2014-07-14 14:00:00,0.426599300824,0,0.554711308012
2014-07-14 14:30:00,0.429457245656,0,0.553815536427
2014-07-14 15:00:00,0.42210824466,0,0.562053692625
2014-07-14 15:30:00,0.423919977545,0,0.566169590206
2014-07-14 16:00:00,0.399321238103,0,0.571745808783
2014-07-14 16:30:00,0.391079129348,0,0.569912962988