timestamp,value,is_anomaly,anomaly_score
2013-07-04 00:00:00,0.431862085547,0,0.5
2013-07-04 01:00:00,0.478425649108,0,0.5
2013-07-04 02:00:00,0.466521446178,0,0.5
2013-07-04 03:00:00,0.399828663617,0,0.5
2013-07-04 04:00:00,0.411097679945,0,0.5
2013-07-04 05:00:00,0.43812427496,0,0.5
2013-07-04 06:00:00,0.41096605278,0,0.5
2013-07-04 07:00:00,0.414089441369,0,0.5
2013-07-04 08:00:00,0.40703587345,0,0.5
2013-07-04 09:00:00,0.400756277349,0,0.5
2013-07-04 10:00:00,0.434790215742,0,0.5
2013-07-04 11:00:00,0.455340759314,0,0.5
2013-07-04 12:00:00,0.446695140735,0,0.5
2013-07-04 13:00:00,0.444565699715,0,0.5
2013-07-04 14:00:00,0.430960749759,0,0.5
2013-07-04 15:00:00,0.493133347988,0,0.5
2013-07-04 16:00:00,0.479309797574,0,0.5
2013-07-04 17:00:00,0.461907989188,0,0.5
2013-07-04 18:00:00,0.483747125101,0,0.5
2013-07-04 19:00:00,0.498433565017,0,0.5
2013-07-04 20:00:00,0.508718883455,0,0.5
2013-07-04 21:00:00,0.489997048136,0,0.5
2013-07-04 22:00:00,0.512059401259,0,0.5
2013-07-04 23:00:00,0.458600394601,0,0.5
2013-07-05 00:00:00,0.482684848549,0,0.5
2013-07-05 01:00:00,0.491166949258,0,0.5
2013-07-05 02:00:00,0.469969972703,0,0.5
2013-07-05 03:00:00,0.44448330528,0,0.5
2013-07-05 04:00:00,0.45105189376,0,0.5
2013-07-05 05:00:00,0.427277584426,0,0.5
2013-07-05 06:00:00,0.392527459758,0,0.5
2013-07-05 07:00:00,0.413464307677,0,0.5
2013-07-05 08:00:00,0.396134861676,0,0.5
2013-07-05 09:00:00,0.44705684662,0,0.5
2013-07-05 10:00:00,0.446453588966,0,0.5
2013-07-05 11:00:00,0.523979084216,0,0.5
2013-07-05 12:00:00,0.493130418714,0,0.5
2013-07-05 13:00:00,0.537595556933,0,0.5
2013-07-05 14:00:00,0.527699794038,0,0.5
2013-07-05 15:00:00,0.538874648428,0,0.5
2013-07-05 16:00:00,0.510826135902,0,0.5
2013-07-05 17:00:00,0.51130779427,0,0.5
2013-07-05 18:00:00,0.516157822289,0,0.5
2013-07-05 19:00:00,0.518824847308,0,0.5
2013-07-05 20:00:00,0.526822345426,0,0.5
2013-07-05 21:00:00,0.53251148528,0,0.5
2013-07-05 22:00:00,0.502647672204,0,0.5
2013-07-05 23:00:00,0.490018337693,0,0.5
2013-07-06 00:00:00,0.492704798268,0,0.5
2013-07-06 01:00:00,0.456750139532,0,0.5
2013-07-06 02:00:00,0.46564111731,0,0.5
2013-07-06 03:00:00,0.473716463334,0,0.5
2013-07-06 04:00:00,0.465458604353,0,0.5
2013-07-06 05:00:00,0.444084919503,0,0.5
2013-07-06 06:00:00,0.44046297551,0,0.5
2013-07-06 07:00:00,0.433544565807,0,0.5
2013-07-06 08:00:00,0.411174120576,0,0.5
2013-07-06 09:00:00,0.426492745857,0,0.5
2013-07-06 10:00:00,0.373084266915,0,0.5
2013-07-06 11:00:00,0.398347529745,0,0.5
2013-07-06 12:00:00,0.341034757618,0,0.5
2013-07-06 13:00:00,0.330492553049,0,0.5
2013-07-06 14:00:00,0.35831904566,0,0.5
2013-07-06 15:00:00,0.328880362848,0,0.5
2013-07-06 16:00:00,0.352751096955,0,0.5
2013-07-06 17:00:00,0.337850532884,0,0.5
2013-07-06 18:00:00,0.366216079346,0,0.5
2013-07-06 19:00:00,0.340686262668,0,0.5
2013-07-06 20:00:00,0.317598980714,0,0.5
2013-07-06 21:00:00,0.361905851576,0,0.5
2013-07-06 22:00:00,0.341868975626,0,0.5
2013-07-06 23:00:00,0.337390442538,0,0.5
2013-07-07 00:00:00,0.306530090185,0,0.5
2013-07-07 01:00:00,0.29585393895,0,0.5
2013-07-07 02:00:00,0.273181647787,0,0.5
2013-07-07 03:00:00,0.277099787753,0,0.5
2013-07-07 04:00:00,0.323053734848,0,0.5
2013-07-07 05:00:00,0.251192770213,0,0.5
2013-07-07 06:00:00,0.247065844212,0,0.5
2013-07-07 07:00:00,0.301453483209,0,0.5
2013-07-07 08:00:00,0.300287950619,0,0.5
2013-07-07 09:00:00,0.261305653981,0,0.5
2013-07-07 10:00:00,0.239055455342,0,0.5
2013-07-07 11:00:00,0.281003782309,0,0.5
2013-07-07 12:00:00,0.224395345518,0,0.5
2013-07-07 13:00:00,0.262502672962,0,0.5
2013-07-07 14:00:00,0.229079029295,0,0.5
2013-07-07 15:00:00,0.236396959843,0,0.5
2013-07-07 16:00:00,0.223708024028,0,0.5
2013-07-07 17:00:00,0.232391583762,0,0.5
2013-07-07 18:00:00,0.233533167642,0,0.5
2013-07-07 19:00:00,0.198112794779,0,0.5
2013-07-07 20:00:00,0.206102315787,0,0.5
2013-07-07 21:00:00,0.227082408912,0,0.5
2013-07-07 22:00:00,0.181346008905,0,0.5
2013-07-07 23:00:00,0.235990736016,0,0.5
2013-07-08 00:00:00,0.174601536054,0,0.5
2013-07-08 01:00:00,0.158949401844,0,0.5
2013-07-08 02:00:00,0.206959665881,0,0.5
2013-07-08 03:00:00,0.147635418414,0,0.5
2013-07-08 04:00:00,0.184834678929,0,0.5
2013-07-08 05:00:00,0.135793385205,0,0.5
2013-07-08 06:00:00,0.147104589544,0,0.5
2013-07-08 07:00:00,0.164857116778,0,0.5
2013-07-08 08:00:00,0.192054187124,0,0.5
2013-07-08 09:00:00,0.242995733124,0,0.5
2013-07-08 10:00:00,0.273756110184,0,0.5
2013-07-08 11:00:00,0.314778339855,0,0.5
2013-07-08 12:00:00,0.362496319643,0,0.5
2013-07-08 13:00:00,0.33944609895,0,0.5
2013-07-08 14:00:00,0.369564296837,0,0.5
2013-07-08 15:00:00,0.385685506678,0,0.5
2013-07-08 16:00:00,0.447141130516,0,0.5
2013-07-08 17:00:00,0.452884395537,0,0.5
2013-07-08 18:00:00,0.51729517739,0,0.5
2013-07-08 19:00:00,0.477403488244,0,0.5
2013-07-08 20:00:00,0.462422435191,0,0.5
2013-07-08 21:00:00,0.455846940704,0,0.5
2013-07-08 22:00:00,0.397267310087,0,0.5
2013-07-08 23:00:00,0.379281600687,0,0.5
2013-07-09 00:00:00,0.38114566673,0,0.5
2013-07-09 01:00:00,0.351117876194,0,0.5
2013-07-09 02:00:00,0.313926201685,0,0.5
2013-07-09 03:00:00,0.29727266844,0,0.5
2013-07-09 04:00:00,0.258099458649,0,0.5
2013-07-09 05:00:00,0.289787868704,0,0.5
2013-07-09 06:00:00,0.286383682125,0,0.5
2013-07-09 07:00:00,0.302082044005,0,0.5
2013-07-09 08:00:00,0.348349775927,0,0.5
2013-07-09 09:00:00,0.346995498112,0,0.5
2013-07-09 10:00:00,0.383885229,0,0.5
2013-07-09 11:00:00,0.433699156797,0,0.5
2013-07-09 12:00:00,0.459247378952,0,0.5
2013-07-09 13:00:00,0.416315482377,0,0.5
2013-07-09 14:00:00,0.443182309936,0,0.5
2013-07-09 15:00:00,0.444001705665,0,0.5
2013-07-09 16:00:00,0.491058629741,0,0.5
2013-07-09 17:00:00,0.490389599353,0,0.5
2013-07-09 18:00:00,0.471783764465,0,0.5
2013-07-09 19:00:00,0.534425987955,0,0.5
2013-07-09 20:00:00,0.475538129301,0,0.5
2013-07-09 21:00:00,0.426299616106,0,0.5
2013-07-09 22:00:00,0.407345019623,0,0.5
2013-07-09 23:00:00,0.412350662452,0,0.5
2013-07-10 00:00:00,0.394725364996,0,0.5
2013-07-10 01:00:00,0.385845199388,0,0.5
2013-07-10 02:00:00,0.357110801156,0,0.5
2013-07-10 03:00:00,0.359805916751,0,0.5
2013-07-10 04:00:00,0.329373689641,0,0.5
2013-07-10 05:00:00,0.29140678657,0,0.5
2013-07-10 06:00:00,0.302323248126,0,0.5
2013-07-10 07:00:00,0.289341326511,0,0.5
2013-07-10 08:00:00,0.34331820732,0,0.5
2013-07-10 09:00:00,0.343829134787,0,0.5
2013-07-10 10:00:00,0.427418619616,0,0.5
2013-07-10 11:00:00,0.432680934078,0,0.5
2013-07-10 12:00:00,0.456663562209,0,0.5
2013-07-10 13:00:00,0.438072199867,0,0.5
2013-07-10 14:00:00,0.47168228247,0,0.5
2013-07-10 15:00:00,0.490278286247,0,0.5
2013-07-10 16:00:00,0.470179892763,0,0.5
2013-07-10 17:00:00,0.497906747994,0,0.5
2013-07-10 18:00:00,0.554350818308,0,0.5
2013-07-10 19:00:00,0.491764618486,0,0.5
2013-07-10 20:00:00,0.452707766854,0,0.5
2013-07-10 21:00:00,0.418198361339,0,0.5
2013-07-10 22:00:00,0.414266475409,0,0.5
2013-07-10 23:00:00,0.389682476305,0,0.5
2013-07-11 00:00:00,0.403200921249,0,0.5
2013-07-11 01:00:00,0.411015457596,0,0.5
2013-07-11 02:00:00,0.36679564694,0,0.5
2013-07-11 03:00:00,0.386605093935,0,0.5
2013-07-11 04:00:00,0.31417188802,0,0.5
2013-07-11 05:00:00,0.323021096701,0,0.5
2013-07-11 06:00:00,0.31165318209,0,0.5
2013-07-11 07:00:00,0.350059323638,0,0.5
2013-07-11 08:00:00,0.362771889717,0,0.5
2013-07-11 09:00:00,0.404756586822,0,0.5
2013-07-11 10:00:00,0.453934887549,0,0.5
2013-07-11 11:00:00,0.488624590467,0,0.5
2013-07-11 12:00:00,0.463438975298,0,0.5
2013-07-11 13:00:00,0.468130523199,0,0.5
2013-07-11 14:00:00,0.485950540544,0,0.5
2013-07-11 15:00:00,0.532319992251,0,0.5
2013-07-11 16:00:00,0.511917062046,0,0.5
2013-07-11 17:00:00,0.513589609683,0,0.5
2013-07-11 18:00:00,0.510578974154,0,0.5
2013-07-11 19:00:00,0.528676435042,0,0.5
2013-07-11 20:00:00,0.496725963782,0,0.5
2013-07-11 21:00:00,0.487291041106,0,0.5
2013-07-11 22:00:00,0.442261793418,0,0.5
2013-07-11 23:00:00,0.436640463858,0,0.5
2013-07-12 00:00:00,0.423284095441,0,0.5
2013-07-12 01:00:00,0.409641691384,0,0.5
2013-07-12 02:00:00,0.416796122139,0,0.5
2013-07-12 03:00:00,0.420755439506,0,0.5
2013-07-12 04:00:00,0.34671112631,0,0.5
2013-07-12 05:00:00,0.341301765493,0,0.5
2013-07-12 06:00:00,0.354065213889,0,0.5
2013-07-12 07:00:00,0.335754959638,0,0.5
2013-07-12 08:00:00,0.386852890835,0,0.5
2013-07-12 09:00:00,0.385553699432,0,0.5
2013-07-12 10:00:00,0.428482233217,0,0.5
2013-07-12 11:00:00,0.440755923764,0,0.5
2013-07-12 12:00:00,0.498531458947,0,0.5
2013-07-12 13:00:00,0.53867427267,0,0.5
2013-07-12 14:00:00,0.553634068149,0,0.5
2013-07-12 15:00:00,0.530758400339,0,0.5
2013-07-12 16:00:00,0.584704211932,0,0.5
2013-07-12 17:00:00,0.560791404885,0,0.5
2013-07-12 18:00:00,0.543001716964,0,0.5
2013-07-12 19:00:00,0.593290089106,0,0.5
2013-07-12 20:00:00,0.523803904873,0,0.5
2013-07-12 21:00:00,0.52787554387,0,0.5
2013-07-12 22:00:00,0.556891196206,0,0.5
2013-07-12 23:00:00,0.518578321754,0,0.5
2013-07-13 00:00:00,0.478006455612,0,0.5
2013-07-13 01:00:00,0.513733966292,0,0.5
2013-07-13 02:00:00,0.474243327985,0,0.5
2013-07-13 03:00:00,0.469374222139,0,0.5
2013-07-13 04:00:00,0.444824653651,0,0.5
2013-07-13 05:00:00,0.481005137298,0,0.5
2013-07-13 06:00:00,0.449083348657,0,0.5
2013-07-13 07:00:00,0.447662917434,0,0.5
2013-07-13 08:00:00,0.39989385578,0,0.5
2013-07-13 09:00:00,0.389934266279,0,0.5
2013-07-13 10:00:00,0.390164964854,0,0.5
2013-07-13 11:00:00,0.439454445886,0,0.5
2013-07-13 12:00:00,0.411362202492,0,0.5
2013-07-13 13:00:00,0.406435414007,0,0.5
2013-07-13 14:00:00,0.414466580697,0,0.5
2013-07-13 15:00:00,0.377853700616,0,0.5
2013-07-13 16:00:00,0.391216409072,0,0.5
2013-07-13 17:00:00,0.416199846975,0,0.5
2013-07-13 18:00:00,0.405609528056,0,0.5
2013-07-13 19:00:00,0.415323121121,0,0.5
2013-07-13 20:00:00,0.389029537456,0,0.5
2013-07-13 21:00:00,0.355387871467,0,0.5
2013-07-13 22:00:00,0.406928728632,0,0.5
2013-07-13 23:00:00,0.373422139858,0,0.5
2013-07-14 00:00:00,0.371159264256,0,0.5
2013-07-14 01:00:00,0.341649481367,0,0.5
2013-07-14 02:00:00,0.358735902272,0,0.5
2013-07-14 03:00:00,0.380520378683,0,0.5
2013-07-14 04:00:00,0.370798345095,0,0.5
2013-07-14 05:00:00,0.318839296353,0,0.5
2013-07-14 06:00:00,0.357924027887,0,0.5
2013-07-14 07:00:00,0.338561676191,0,0.5
2013-07-14 08:00:00,0.303729126148,0,0.5
2013-07-14 09:00:00,0.332916057575,0,0.5
2013-07-14 10:00:00,0.31058388446,0,0.5
2013-07-14 11:00:00,0.331331814024,0,0.5
2013-07-14 12:00:00,0.321507967134,0,0.5
2013-07-14 13:00:00,0.29330725543,0,0.5
2013-07-14 14:00:00,0.302268696048,0,0.5
2013-07-14 15:00:00,0.295147513908,0,0.5
2013-07-14 16:00:00,0.3033931378,0,0.5
2013-07-14 17:00:00,0.295440828235,0,0.5
2013-07-14 18:00:00,0.317144270207,0,0.5
2013-07-14 19:00:00,0.338359167619,0,0.5
2013-07-14 20:00:00,0.322830933075,0,0.5
2013-07-14 21:00:00,0.293424255345,0,0.5
2013-07-14 22:00:00,0.280191091996,0,0.5
2013-07-14 23:00:00,0.296414453053,0,0.5
2013-07-15 00:00:00,0.318815891712,0,0.5
2013-07-15 01:00:00,0.258976290535,0,0.5
2013-07-15 02:00:00,0.260436929224,0,0.5
2013-07-15 03:00:00,0.28443921436,0,0.5
2013-07-15 04:00:00,0.239000949501,0,0.5
2013-07-15 05:00:00,0.290479925146,0,0.5
2013-07-15 06:00:00,0.234304144134,0,0.5
2013-07-15 07:00:00,0.289741929233,0,0.5
2013-07-15 08:00:00,0.313293365178,0,0.5
2013-07-15 09:00:00,0.304286459976,0,0.5
2013-07-15 10:00:00,0.380501663105,0,0.5
2013-07-15 11:00:00,0.419216247188,0,0.5
2013-07-15 12:00:00,0.415057942565,0,0.5
2013-07-15 13:00:00,0.467741043792,0,0.5
2013-07-15 14:00:00,0.466903031564,0,0.5
2013-07-15 15:00:00,0.474583936214,0,0.5
2013-07-15 16:00:00,0.539171199001,0,0.5
2013-07-15 17:00:00,0.506497540897,0,0.5
2013-07-15 18:00:00,0.573395894105,0,0.5
2013-07-15 19:00:00,0.553370117134,0,0.5
2013-07-15 20:00:00,0.557948877211,0,0.5
2013-07-15 21:00:00,0.530535181738,0,0.5
2013-07-15 22:00:00,0.52201957446,0,0.5
2013-07-15 23:00:00,0.508473830533,0,0.5
2013-07-16 00:00:00,0.448551295026,0,0.5
2013-07-16 01:00:00,0.472526201916,0,0.5
2013-07-16 02:00:00,0.473266449886,0,0.5
2013-07-16 03:00:00,0.453864351356,0,0.5
2013-07-16 04:00:00,0.442352514347,0,0.5
2013-07-16 05:00:00,0.430979015134,0,0.5
2013-07-16 06:00:00,0.366130404862,0,0.5
2013-07-16 07:00:00,0.382385836357,0,0.5
2013-07-16 08:00:00,0.375897790049,0,0.5
2013-07-16 09:00:00,0.399897578037,0,0.5
2013-07-16 10:00:00,0.427117848955,0,0.5
2013-07-16 11:00:00,0.45740997257,0,0.5
2013-07-16 12:00:00,0.476973722454,0,0.5
2013-07-16 13:00:00,0.518979369464,0,0.5
2013-07-16 14:00:00,0.519855114606,0,0.5
2013-07-16 15:00:00,0.564221732783,0,0.5
2013-07-16 16:00:00,0.566138219828,0,0.5
2013-07-16 17:00:00,0.566585154514,0,0.5
2013-07-16 18:00:00,0.586327932889,0,0.5
2013-07-16 19:00:00,0.570335142822,0,0.5
2013-07-16 20:00:00,0.567710657285,0,0.5
2013-07-16 21:00:00,0.540391002422,0,0.5
2013-07-16 22:00:00,0.507113079878,0,0.5
2013-07-16 23:00:00,0.473809245114,0,0.5
2013-07-17 00:00:00,0.505011547614,0,0.5
2013-07-17 01:00:00,0.474649265003,0,0.5
2013-07-17 02:00:00,0.470654365961,0,0.5
2013-07-17 03:00:00,0.410308302148,0,0.5
2013-07-17 04:00:00,0.419488283777,0,0.5
2013-07-17 05:00:00,0.389210937248,0,0.5
2013-07-17 06:00:00,0.38184912078,0,0.5
2013-07-17 07:00:00,0.400785290233,0,0.5
2013-07-17 08:00:00,0.370687637243,0,0.5
2013-07-17 09:00:00,0.445636755744,0,0.5
2013-07-17 10:00:00,0.417460284773,0,0.5
2013-07-17 11:00:00,0.447222417694,0,0.5
2013-07-17 12:00:00,0.498853821617,0,0.5
2013-07-17 13:00:00,0.50777186024,0,0.5
2013-07-17 14:00:00,0.522428038872,0,0.5
2013-07-17 15:00:00,0.517987935036,0,0.5
2013-07-17 16:00:00,0.600450929776,0,0.5
2013-07-17 17:00:00,0.590914019628,0,0.5
2013-07-17 18:00:00,0.624458384425,0,0.5
2013-07-17 19:00:00,0.60740214554,0,0.5
2013-07-17 20:00:00,0.55634962539,0,0.5
2013-07-17 21:00:00,0.55568719821,0,0.5
2013-07-17 22:00:00,0.56095815344,0,0.5
2013-07-17 23:00:00,0.525126078875,0,0.5
2013-07-18 00:00:00,0.494349196576,0,0.5
2013-07-18 01:00:00,0.526954746106,0,0.5
2013-07-18 02:00:00,0.45205050258,0,0.5
2013-07-18 03:00:00,0.459884769288,0,0.5
2013-07-18 04:00:00,0.480442254328,0,0.5
2013-07-18 05:00:00,0.446844183973,0,0.5
2013-07-18 06:00:00,0.419940498527,0,0.5
2013-07-18 07:00:00,0.449850877185,0,0.5
2013-07-18 08:00:00,0.423259480293,0,0.5
2013-07-18 09:00:00,0.417654127895,0,0.5
2013-07-18 10:00:00,0.486899838412,0,0.5
2013-07-18 11:00:00,0.519897007465,0,0.5
2013-07-18 12:00:00,0.469857569376,0,0.5
2013-07-18 13:00:00,0.519736362549,0,0.5
2013-07-18 14:00:00,0.571538282477,0,0.5
2013-07-18 15:00:00,0.574888531618,0,0.5
2013-07-18 16:00:00,0.593854157899,0,0.5
2013-07-18 17:00:00,0.575433478086,0,0.5
2013-07-18 18:00:00,0.658151939168,0,0.5
2013-07-18 19:00:00,0.634065977474,0,0.5
2013-07-18 20:00:00,0.623181065583,0,0.5
2013-07-18 21:00:00,0.579408732984,0,0.5
2013-07-18 22:00:00,0.624233062906,0,0.5
2013-07-18 23:00:00,0.599194504174,0,0.5
2013-07-19 00:00:00,0.542961199397,0,0.5
2013-07-19 01:00:00,0.545995096337,0,0.5
2013-07-19 02:00:00,0.557882707116,0,0.5
2013-07-19 03:00:00,0.579478682698,0,0.5
2013-07-19 04:00:00,0.56503480064,0,0.5
2013-07-19 05:00:00,0.504853701257,0,0.5
2013-07-19 06:00:00,0.479501028476,0,0.5
2013-07-19 07:00:00,0.51110601819,0,0.5
2013-07-19 08:00:00,0.483739090282,0,0.5
2013-07-19 09:00:00,0.488774380451,0,0.5
2013-07-19 10:00:00,0.515052080819,0,0.5
2013-07-19 11:00:00,0.499163144047,0,0.5
2013-07-19 12:00:00,0.568352860099,0,0.5
2013-07-19 13:00:00,0.538468238957,0,0.5
2013-07-19 14:00:00,0.621222152041,0,0.5
2013-07-19 15:00:00,0.636210885659,0,0.5
2013-07-19 16:00:00,0.631251266778,0,0.5
2013-07-19 17:00:00,0.603093127235,0,0.5
2013-07-19 18:00:00,0.642911162837,0,0.5
2013-07-19 19:00:00,0.609972515296,0,0.5
2013-07-19 20:00:00,0.637369970786,0,0.5
2013-07-19 21:00:00,0.6423896815,0,0.5
2013-07-19 22:00:00,0.577911549639,0,0.5
2013-07-19 23:00:00,0.575897098787,0,0.5
2013-07-20 00:00:00,0.562033148311,0,0.5
2013-07-20 01:00:00,0.559502516002,0,0.5
2013-07-20 02:00:00,0.581126213653,0,0.5
2013-07-20 03:00:00,0.535835464819,0,0.5
2013-07-20 04:00:00,0.515436001003,0,0.866032133446
2013-07-20 05:00:00,0.558071549336,0,0.845549682452
2013-07-20 06:00:00,0.536602337338,0,0.800166463877
2013-07-20 07:00:00,0.510676497839,0,0.730082106856
2013-07-20 08:00:00,0.538760666784,0,0.707104881906
2013-07-20 09:00:00,0.520200348627,0,0.672939779386
2013-07-20 10:00:00,0.459132105452,0,0.606042128839
2013-07-20 11:00:00,0.492067754189,0,0.560286286009
2013-07-20 12:00:00,0.427167885099,0,0.546237790205
2013-07-20 13:00:00,0.4843922259,0,0.581472773691
2013-07-20 14:00:00,0.464766765538,0,0.61555112132
2013-07-20 15:00:00,0.41267305502,0,0.707735516233
2013-07-20 16:00:00,0.458671571856,0,0.771178610492
2013-07-20 17:00:00,0.4452593602,0,0.805298587634
2013-07-20 18:00:00,0.402652752787,0,0.865668041131
2013-07-20 19:00:00,0.381064675747,0,0.912617084741
2013-07-20 20:00:00,0.396321744904,0,0.929261703538
2013-07-20 21:00:00,0.379237790902,0,0.952913186833
2013-07-20 22:00:00,0.395599395195,0,0.95824812988
2013-07-20 23:00:00,0.377044858061,0,0.972840782913
2013-07-21 00:00:00,0.414065955726,0,0.978085232122
2013-07-21 01:00:00,0.369321882209,0,0.981865229639
2013-07-21 02:00:00,0.352706152103,0,0.988843012537
2013-07-21 03:00:00,0.347223074122,0,0.993087326732
2013-07-21 04:00:00,0.350497253571,0,0.994703130947
2013-07-21 05:00:00,0.359818741103,0,0.995258531922
2013-07-21 06:00:00,0.310348608416,0,0.997012682105
2013-07-21 07:00:00,0.320298180815,0,0.997851247135
2013-07-21 08:00:00,0.294033555105,0,0.998811638879
2013-07-21 09:00:00,0.285527420862,0,0.999321498682
2013-07-21 10:00:00,0.287392378272,0,0.999700508622
2013-07-21 11:00:00,0.324704976241,0,0.99977807106
2013-07-21 12:00:00,0.277167577535,0,0.99986824099
2013-07-21 13:00:00,0.327794275604,0,0.999885103012
2013-07-21 14:00:00,0.295189268751,0,0.999922688417
2013-07-21 15:00:00,0.271990676821,0,0.9999595815
2013-07-21 16:00:00,0.319532924508,0,0.999956696859
2013-07-21 17:00:00,0.310819506065,0,0.999959670879
2013-07-21 18:00:00,0.262501089778,0,0.99996823473
2013-07-21 19:00:00,0.264314884668,0,0.99997299395
2013-07-21 20:00:00,0.28405244208,0,0.999973678728
2013-07-21 21:00:00,0.309863696767,0,0.999976527437
2013-07-21 22:00:00,0.245818110481,0,0.999981613281
2013-07-21 23:00:00,0.308721228821,0,0.999984175475
2013-07-22 00:00:00,0.272318019535,0,0.999986801311
2013-07-22 01:00:00,0.268133009362,0,0.999987201176
2013-07-22 02:00:00,0.274960252454,0,0.999991060014
2013-07-22 03:00:00,0.246880358177,0,0.999
2013-07-22 04:00:00,0.250307502324,0,0.999
2013-07-22 05:00:00,0.257579433954,0,0.999
2013-07-22 06:00:00,0.213838587748,0,0.999
2013-07-22 07:00:00,0.260816196847,0,0.999
2013-07-22 08:00:00,0.277476168863,0,0.999
2013-07-22 09:00:00,0.334178994607,0,0.999
2013-07-22 10:00:00,0.320282073632,0,0.999
2013-07-22 11:00:00,0.353981073919,0,0.999
2013-07-22 12:00:00,0.388306759793,0,0.99997984054
2013-07-22 13:00:00,0.444537635907,0,0.999911303234
2013-07-22 14:00:00,0.425772639166,0,0.999701299617
2013-07-22 15:00:00,0.448746249924,0,0.998992661309
2013-07-22 16:00:00,0.515249316976,0,0.994528679803
2013-07-22 17:00:00,0.530448111798,0,0.980219194852
2013-07-22 18:00:00,0.500078283508,0,0.951227947648
2013-07-22 19:00:00,0.489488449208,0,0.915714222762
2013-07-22 20:00:00,0.490172445454,0,0.857790339224
2013-07-22 21:00:00,0.462611833646,0,0.809090663709
2013-07-22 22:00:00,0.475720938106,0,0.763287035595
2013-07-22 23:00:00,0.460824629235,0,0.754130517829
2013-07-23 00:00:00,0.421739596986,0,0.756415446762
2013-07-23 01:00:00,0.402039513839,0,0.7820233395
2013-07-23 02:00:00,0.399755409171,0,0.838255954851
2013-07-23 03:00:00,0.371619151228,0,0.898620799142
2013-07-23 04:00:00,0.348618700033,0,0.939051439447
2013-07-23 05:00:00,0.315120497547,0,0.968648930565
2013-07-23 06:00:00,0.325373491068,0,0.984554741656
2013-07-23 07:00:00,0.30571222619,0,0.992685138944
2013-07-23 08:00:00,0.371512102708,0,0.995722433405
2013-07-23 09:00:00,0.392736780127,0,0.997039466413
2013-07-23 10:00:00,0.385438277486,0,0.997580670361
2013-07-23 11:00:00,0.389247800001,0,0.997748918301
2013-07-23 12:00:00,0.434796924287,0,0.997260720533
2013-07-23 13:00:00,0.468369930333,0,0.995379254091
2013-07-23 14:00:00,0.459366775894,0,0.991875555812
2013-07-23 15:00:00,0.521366624833,0,0.978890372332
2013-07-23 16:00:00,0.53170065627,0,0.951470516381
2013-07-23 17:00:00,0.539848070915,0,0.891968379351
2013-07-23 18:00:00,0.545569464071,0,0.822044878826
2013-07-23 19:00:00,0.546818777858,0,0.740643182009
2013-07-23 20:00:00,0.472255397387,0,0.687498439744
2013-07-23 21:00:00,0.489665540958,0,0.62084027695
2013-07-23 22:00:00,0.496676215838,0,0.577734559167
2013-07-23 23:00:00,0.468779198158,0,0.577445712618
2013-07-24 00:00:00,0.427150393238,0,0.600043291086
2013-07-24 01:00:00,0.419570403918,0,0.668954688503
2013-07-24 02:00:00,0.447443503134,0,0.722059215361
2013-07-24 03:00:00,0.437053771689,0,0.780634827463
2013-07-24 04:00:00,0.396735752896,0,0.85146361296
2013-07-24 05:00:00,0.398580487331,0,0.904910505623
2013-07-24 06:00:00,0.37017313666,0,0.932429836022
2013-07-24 07:00:00,0.3859396683,0,0.953636429511
2013-07-24 08:00:00,0.361397295409,0,0.972893643701
2013-07-24 09:00:00,0.378843825457,0,0.981570110387
2013-07-24 10:00:00,0.425852073733,0,0.981675601276
2013-07-24 11:00:00,0.454565990341,0,0.978645640213
2013-07-24 12:00:00,0.428365086942,0,0.980346169787
2013-07-24 13:00:00,0.488735479095,0,0.975451813858
2013-07-24 14:00:00,0.506613237484,0,0.961604051995
2013-07-24 15:00:00,0.55420739965,0,0.931752227893
2013-07-24 16:00:00,0.57045819562,0,0.870296605439
2013-07-24 17:00:00,0.528749904334,0,0.807921985511
2013-07-24 18:00:00,0.535161535737,0,0.711207131299
2013-07-24 19:00:00,0.544235457555,0,0.602052539712
2013-07-24 20:00:00,0.515313643498,0,0.728401659748
2013-07-24 21:00:00,0.526935760753,0,0.753953367728
2013-07-24 22:00:00,0.492156007518,0,0.775360014246
2013-07-24 23:00:00,0.531840254286,0,0.789205670857
2013-07-25 00:00:00,0.475759647909,0,0.77934681443
2013-07-25 01:00:00,0.465850509641,0,0.749698332921
2013-07-25 02:00:00,0.467035710709,0,0.712480953738
2013-07-25 03:00:00,0.4655551216,0,0.688521980489
2013-07-25 04:00:00,0.48499522699,0,0.668909814686
2013-07-25 05:00:00,0.444968026419,0,0.628750868973
2013-07-25 06:00:00,0.429807771399,0,0.592977352037
2013-07-25 07:00:00,0.414906807534,0,0.544953950735
2013-07-25 08:00:00,0.434240114711,0,0.519820359065
2013-07-25 09:00:00,0.44851221046,0,0.516454186559
2013-07-25 10:00:00,0.491541795506,0,0.509585183387
2013-07-25 11:00:00,0.476328541001,0,0.50502304047
2013-07-25 12:00:00,0.52335913568,0,0.519496566934
2013-07-25 13:00:00,0.541341686359,0,0.552356369154
2013-07-25 14:00:00,0.508938323133,0,0.562674163586
2013-07-25 15:00:00,0.537720435226,0,0.602182023048
2013-07-25 16:00:00,0.570522788788,0,0.660050267504
2013-07-25 17:00:00,0.572066145918,0,0.72044090951
2013-07-25 18:00:00,0.591399964483,0,0.775086613277
2013-07-25 19:00:00,0.547708738287,0,0.806201791956
2013-07-25 20:00:00,0.592864252771,0,0.835117100861
2013-07-25 21:00:00,0.534838872352,0,0.850470686289
2013-07-25 22:00:00,0.555343872423,0,0.858446990671
2013-07-25 23:00:00,0.55089047526,0,0.860771322808
2013-07-26 00:00:00,0.533725862625,0,0.866683276829
2013-07-26 01:00:00,0.535596468952,0,0.866183570877
2013-07-26 02:00:00,0.484057587813,0,0.844743669008
2013-07-26 03:00:00,0.477591709913,0,0.818857792258
2013-07-26 04:00:00,0.472144739596,0,0.782553039434
2013-07-26 05:00:00,0.515237074238,0,0.771984800631
2013-07-26 06:00:00,0.443578558727,0,0.719865651917
2013-07-26 07:00:00,0.447036803378,0,0.686728998895
2013-07-26 08:00:00,0.428658500348,0,0.636197410099
2013-07-26 09:00:00,0.466648207675,0,0.601162032494
2013-07-26 10:00:00,0.492299468241,0,0.583609402429
2013-07-26 11:00:00,0.515445406246,0,0.575008261727
2013-07-26 12:00:00,0.532373310878,0,0.595563360643
2013-07-26 13:00:00,0.548887198479,0,0.625403762058
2013-07-26 14:00:00,0.53359354851,0,0.650540615003
2013-07-26 15:00:00,0.525958122002,0,0.654863006747
2013-07-26 16:00:00,0.598848802567,0,0.714973235951
2013-07-26 17:00:00,0.543497393503,0,0.749611217354
2013-07-26 18:00:00,0.57819457257,0,0.798562293844
2013-07-26 19:00:00,0.596569977614,0,0.836041094715
2013-07-26 20:00:00,0.568775267243,0,0.855835780996
2013-07-26 21:00:00,0.594884514542,0,0.874620873136
2013-07-26 22:00:00,0.52955702534,0,0.873985580338
2013-07-26 23:00:00,0.559816630051,0,0.876438513002
2013-07-27 00:00:00,0.56738408009,0,0.883810037733
2013-07-27 01:00:00,0.537253509445,0,0.8862031224
2013-07-27 02:00:00,0.557206334075,0,0.877204365515
2013-07-27 03:00:00,0.531067875038,0,0.874424200472
2013-07-27 04:00:00,0.49265728048,0,0.854101164388
2013-07-27 05:00:00,0.519805783839,0,0.834074482447
2013-07-27 06:00:00,0.493307239299,0,0.81273313482
2013-07-27 07:00:00,0.482872955495,0,0.778085630245
2013-07-27 08:00:00,0.460262305629,0,0.754935394287
2013-07-27 09:00:00,0.452355799952,0,0.716610474897
2013-07-27 10:00:00,0.471644823154,0,0.680213116617
2013-07-27 11:00:00,0.430264782287,0,0.637396520213
2013-07-27 12:00:00,0.488183486169,0,0.608789207045
2013-07-27 13:00:00,0.450036532176,0,0.574449080322
2013-07-27 14:00:00,0.454916526327,0,0.558242896178
2013-07-27 15:00:00,0.500578977637,0,0.549947330103
2013-07-27 16:00:00,0.476062709911,0,0.542488313408
2013-07-27 17:00:00,0.532830216081,0,0.564046525655
2013-07-27 18:00:00,0.552838730986,0,0.603451454929
2013-07-27 19:00:00,0.535596323288,0,0.638013667809
2013-07-27 20:00:00,0.530081087608,0,0.661639622914
2013-07-27 21:00:00,0.570167331858,0,0.715544644359
2013-07-27 22:00:00,0.557857873645,0,0.740766870462
2013-07-27 23:00:00,0.512223062361,0,0.762260494376
2013-07-28 00:00:00,0.51039981008,0,0.780581042404
2013-07-28 01:00:00,0.531998520253,0,0.790585335207
2013-07-28 03:00:00,0.532733762801,0,0.807935779955
2013-07-28 04:00:00,0.501810954614,0,0.798550454882
2013-07-29 12:00:00,0.548762159573,0,0.797296915536
2013-07-29 13:00:00,0.549131977107,0,0.801441155268
2013-07-29 14:00:00,0.526817593786,0,0.800446668713
2013-07-29 15:00:00,0.541290577377,0,0.791517119591
2013-07-29 16:00:00,0.550402261659,0,0.789173914259
2013-07-29 17:00:00,0.579302427734,0,0.809697058022
2013-07-29 18:00:00,0.611294822447,0,0.838157877537
2013-07-29 19:00:00,0.610193288896,0,0.858200774651
2013-07-29 20:00:00,0.580021979928,0,0.869470035785
2013-07-29 21:00:00,0.572436558276,0,0.885121047319
2013-07-29 22:00:00,0.597977186777,0,0.895207010348
2013-07-29 23:00:00,0.602809831401,0,0.905458757393
2013-07-30 00:00:00,0.591299070707,0,0.916772487115
2013-07-30 01:00:00,0.550643319421,0,0.918325179511
2013-07-30 02:00:00,0.564058925155,0,0.920553022187
2013-07-30 03:00:00,0.517595041734,0,0.910111645896
2013-07-30 04:00:00,0.548790555383,0,0.898529059724
2013-07-30 05:00:00,0.510734198557,0,0.877919130391
2013-07-30 06:00:00,0.520127374037,0,0.864174376904
2013-07-30 07:00:00,0.481592642369,0,0.841370091549
2013-07-30 08:00:00,0.495216869701,0,0.765833405398
2013-07-30 09:00:00,0.514261446278,0,0.732186591774
2013-07-30 10:00:00,0.504740333905,0,0.697094333676
2013-07-30 11:00:00,0.484635866332,0,0.669027130239
2013-07-30 12:00:00,0.491522410012,0,0.637054772674
2013-07-30 13:00:00,0.527578577859,0,0.641518545955
2013-07-30 14:00:00,0.548629176237,0,0.641446542777
2013-07-30 15:00:00,0.523640280622,0,0.647188824453
2013-07-30 16:00:00,0.575619189744,0,0.671484589717
2013-07-30 17:00:00,0.563754101626,0,0.706139814718
2013-07-30 18:00:00,0.635913229916,0,0.761202939822
2013-07-30 19:00:00,0.587713656422,0,0.787536340187
2013-07-30 20:00:00,0.589516902659,0,0.815714018544
2013-07-30 21:00:00,0.582738768536,0,0.845260704187
2013-07-30 22:00:00,0.618332352365,0,0.878549618541
2013-07-30 23:00:00,0.636487051252,0,0.902828391609
2013-07-31 00:00:00,0.618864666731,0,0.91647119892
2013-07-31 01:00:00,0.609977870799,0,0.931206107855
2013-07-31 02:00:00,0.540253290738,0,0.925432879887
2013-07-31 03:00:00,0.582994837697,0,0.928618034041
2013-07-31 04:00:00,0.570280932829,0,0.917308141098
2013-07-31 05:00:00,0.562894496693,0,0.912696523567
2013-07-31 06:00:00,0.519987452014,0,0.898758451176
2013-07-31 07:00:00,0.517009591605,0,0.884153281761
2013-07-31 08:00:00,0.528307354867,0,0.861810645358
2013-07-31 09:00:00,0.515376503645,0,0.827376047598
2013-07-31 10:00:00,0.541498108059,0,0.802739530224
2013-07-31 11:00:00,0.51527947049,0,0.769848528562
2013-07-31 12:00:00,0.501300054263,0,0.755476662869
2013-07-31 13:00:00,0.554258925113,0,0.744572297864
2013-07-31 14:00:00,0.590402855413,0,0.752234474123
2013-07-31 15:00:00,0.570765312577,0,0.755197846004
2013-07-31 16:00:00,0.571859745437,0,0.774241952507
2013-07-31 17:00:00,0.615722860149,0,0.808063959238
2013-07-31 18:00:00,0.615374561967,0,0.835162623002
2013-07-31 19:00:00,0.602950118106,0,0.859786180795
2013-07-31 20:00:00,0.654327935067,0,0.88764769056
2013-07-31 21:00:00,0.604873762508,0,0.906768685362
2013-07-31 22:00:00,0.642091801525,0,0.931791208015
2013-07-31 23:00:00,0.64168776857,0,0.944496376452
2013-08-01 00:00:00,0.588849168994,0,0.944288159167
2013-08-01 01:00:00,0.61361813301,0,0.949809161738
2013-08-01 02:00:00,0.57821532536,0,0.950589513392
2013-08-01 03:00:00,0.609647058915,0,0.949843719057
2013-08-01 04:00:00,0.592101252345,0,0.946903604475
2013-08-01 05:00:00,0.580615010154,0,0.943955089143
2013-08-01 06:00:00,0.567093783339,0,0.931186370997
2013-08-01 07:00:00,0.566787686031,0,0.924952862911
2013-08-01 08:00:00,0.519185388229,0,0.901892452961
2013-08-01 09:00:00,0.528291819216,0,0.876359828907
2013-08-01 10:00:00,0.500612373655,0,0.853508089122
2013-08-01 11:00:00,0.537075093855,0,0.831518284979
2013-08-01 12:00:00,0.5313807831,0,0.817067900297
2013-08-01 13:00:00,0.568417530444,0,0.803726267854
2013-08-01 14:00:00,0.575782764282,0,0.798286753952
2013-08-01 15:00:00,0.607683472997,0,0.80726052683
2013-08-01 16:00:00,0.557080233455,0,0.803969627993
2013-08-01 17:00:00,0.580972917996,0,0.808621507647
2013-08-01 18:00:00,0.575672655425,0,0.826465840244
2013-08-01 19:00:00,0.59238133592,0,0.845383724383
2013-08-01 20:00:00,0.655440389254,0,0.885269066258