timestamp,value,is_anomaly,anomaly_score
2014-04-01 00:00:00,0.0,0,0.5
2014-04-01 00:05:00,0.0,0,0.5
2014-04-01 00:10:00,0.0,0,0.5
2014-04-01 00:15:00,0.0,0,0.5
2014-04-01 00:20:00,0.0,0,0.5
2014-04-01 00:25:00,0.0,0,0.5
2014-04-01 00:30:00,0.0,0,0.5
2014-04-01 00:35:00,0.0,0,0.5
2014-04-01 00:40:00,0.0,0,0.5
2014-04-01 00:45:00,0.0,0,0.5
2014-04-01 00:50:00,0.0,0,0.5
2014-04-01 00:55:00,0.0,0,0.5
2014-04-01 01:00:00,0.0,0,0.5
2014-04-01 01:05:00,0.0,0,0.5
2014-04-01 01:10:00,0.0,0,0.5
2014-04-01 01:15:00,0.0,0,0.5
2014-04-01 01:20:00,0.0,0,0.5
2014-04-01 01:25:00,0.0,0,0.5
2014-04-01 01:30:00,0.0,0,0.5
2014-04-01 01:35:00,0.0,0,0.5
2014-04-01 01:40:00,0.0,0,0.5
2014-04-01 01:45:00,0.0,0,0.5
2014-04-01 01:50:00,0.0,0,0.5
2014-04-01 01:55:00,0.0,0,0.5
2014-04-01 02:00:00,0.0,0,0.5
2014-04-01 02:05:00,0.0,0,0.5
2014-04-01 02:10:00,0.0,0,0.5
2014-04-01 02:15:00,0.0,0,0.5
2014-04-01 02:20:00,0.0,0,0.5
2014-04-01 02:25:00,0.0,0,0.5
2014-04-01 02:30:00,0.0,0,0.5
2014-04-01 02:35:00,0.0,0,0.5
2014-04-01 02:40:00,0.0,0,0.5
2014-04-01 02:45:00,0.0,0,0.5
2014-04-01 02:50:00,0.0,0,0.5
2014-04-01 02:55:00,0.0,0,0.5
2014-04-01 03:00:00,0.0,0,0.5
2014-04-01 03:05:00,0.0,0,0.5
2014-04-01 03:10:00,0.0,0,0.5
2014-04-01 03:15:00,0.0,0,0.5
2014-04-01 03:20:00,0.0,0,0.5
2014-04-01 03:25:00,0.0,0,0.5
2014-04-01 03:30:00,0.0,0,0.5
2014-04-01 03:35:00,0.0,0,0.5
2014-04-01 03:40:00,0.0,0,0.5
2014-04-01 03:45:00,0.0,0,0.5
2014-04-01 03:50:00,0.0,0,0.5
2014-04-01 03:55:00,0.0,0,0.5
2014-04-01 04:00:00,0.0,0,0.5
2014-04-01 04:05:00,0.0,0,0.5
2014-04-01 04:10:00,0.0,0,0.5
2014-04-01 04:15:00,0.0,0,0.5
2014-04-01 04:20:00,0.0,0,0.5
2014-04-01 04:25:00,0.0,0,0.5
2014-04-01 04:30:00,0.0,0,0.5
2014-04-01 04:35:00,0.0,0,0.5
2014-04-01 04:40:00,0.0,0,0.5
2014-04-01 04:45:00,0.0,0,0.5
2014-04-01 04:50:00,0.0,0,0.5
2014-04-01 04:55:00,0.0,0,0.5
2014-04-01 05:00:00,0.0,0,0.5
2014-04-01 05:05:00,0.0,0,0.5
2014-04-01 05:10:00,0.0,0,0.5
2014-04-01 05:15:00,0.0,0,0.5
2014-04-01 05:20:00,0.0,0,0.5
2014-04-01 05:25:00,0.0,0,0.5
2014-04-01 05:30:00,0.0,0,0.5
2014-04-01 05:35:00,0.0,0,0.5
2014-04-01 05:40:00,0.0,0,0.5
2014-04-01 05:45:00,0.0,0,0.5
2014-04-01 05:50:00,0.0,0,0.5
2014-04-01 05:55:00,0.0,0,0.5
2014-04-01 06:00:00,0.0,0,0.5
2014-04-01 06:05:00,0.0,0,0.5
2014-04-01 06:10:00,0.0,0,0.5
2014-04-01 06:15:00,0.0,0,0.5
2014-04-01 06:20:00,0.0,0,0.5
2014-04-01 06:25:00,0.0,0,0.5
2014-04-01 06:30:00,0.0,0,0.5
2014-04-01 06:35:00,0.0,0,0.5
2014-04-01 06:40:00,0.0,0,0.5
2014-04-01 06:45:00,0.0,0,0.5
2014-04-01 06:50:00,0.0,0,0.5
2014-04-01 06:55:00,0.0,0,0.5
2014-04-01 07:00:00,0.0,0,0.5
2014-04-01 07:05:00,0.0,0,0.5
2014-04-01 07:10:00,0.0,0,0.5
2014-04-01 07:15:00,0.0,0,0.5
2014-04-01 07:20:00,0.0,0,0.5
2014-04-01 07:25:00,0.0,0,0.5
2014-04-01 07:30:00,0.0,0,0.5
2014-04-01 07:35:00,0.0,0,0.5
2014-04-01 07:40:00,0.0,0,0.5
2014-04-01 07:45:00,0.0,0,0.5
2014-04-01 07:50:00,0.0,0,0.5
2014-04-01 07:55:00,0.0,0,0.5
2014-04-01 08:00:00,0.0,0,0.5
2014-04-01 08:05:00,0.0,0,0.5
2014-04-01 08:10:00,0.0,0,0.5
2014-04-01 08:15:00,0.0,0,0.5
2014-04-01 08:20:00,0.0,0,0.5
2014-04-01 08:25:00,0.0,0,0.5
2014-04-01 08:30:00,0.0,0,0.5
2014-04-01 08:35:00,0.0,0,0.5
2014-04-01 08:40:00,0.0,0,0.5
2014-04-01 08:45:00,0.0,0,0.5
2014-04-01 08:50:00,0.0,0,0.5
2014-04-01 08:55:00,0.0,0,0.5
2014-04-01 09:00:00,0.8000004096,0,0.5
2014-04-01 09:05:00,0.8000004096,0,0.5
2014-04-01 09:10:00,0.8000004096,0,0.5
2014-04-01 09:15:00,0.8000004096,0,0.5
2014-04-01 09:20:00,0.8000004096,0,0.5
2014-04-01 09:25:00,0.8000004096,0,0.5
2014-04-01 09:30:00,0.8000004096,0,0.5
2014-04-01 09:35:00,0.8000004096,0,0.5
2014-04-01 09:40:00,0.8000004096,0,0.5
2014-04-01 09:45:00,0.8000004096,0,0.5
2014-04-01 09:50:00,0.8000004096,0,0.5
2014-04-01 09:55:00,0.8000004096,0,0.5
2014-04-01 10:00:00,0.96000049152,0,0.5
2014-04-01 10:05:00,0.96000049152,0,0.5
2014-04-01 10:10:00,0.96000049152,0,0.5
2014-04-01 10:15:00,0.96000049152,0,0.5
2014-04-01 10:20:00,0.96000049152,0,0.5
2014-04-01 10:25:00,0.96000049152,0,0.5
2014-04-01 10:30:00,0.96000049152,0,0.5
2014-04-01 10:35:00,0.96000049152,0,0.5
2014-04-01 10:40:00,0.96000049152,0,0.5
2014-04-01 10:45:00,0.96000049152,0,0.5
2014-04-01 10:50:00,0.96000049152,0,0.5
2014-04-01 10:55:00,0.96000049152,0,0.5
2014-04-01 11:00:00,0.992000507904,0,0.5
2014-04-01 11:05:00,0.992000507904,0,0.5
2014-04-01 11:10:00,0.992000507904,0,0.5
2014-04-01 11:15:00,0.992000507904,0,0.5
2014-04-01 11:20:00,0.992000507904,0,0.5
2014-04-01 11:25:00,0.992000507904,0,0.5
2014-04-01 11:30:00,0.992000507904,0,0.5
2014-04-01 11:35:00,0.992000507904,0,0.5
2014-04-01 11:40:00,0.992000507904,0,0.5
2014-04-01 11:45:00,0.992000507904,0,0.5
2014-04-01 11:50:00,0.992000507904,0,0.5
2014-04-01 11:55:00,0.992000507904,0,0.5
2014-04-01 12:00:00,0.998400511181,0,0.5
2014-04-01 12:05:00,0.998400511181,0,0.5
2014-04-01 12:10:00,0.998400511181,0,0.5
2014-04-01 12:15:00,0.998400511181,0,0.5
2014-04-01 12:20:00,0.998400511181,0,0.5
2014-04-01 12:25:00,0.998400511181,0,0.5
2014-04-01 12:30:00,0.998400511181,0,0.5
2014-04-01 12:35:00,0.998400511181,0,0.5
2014-04-01 12:40:00,0.998400511181,0,0.5
2014-04-01 12:45:00,0.998400511181,0,0.5
2014-04-01 12:50:00,0.998400511181,0,0.5
2014-04-01 12:55:00,0.998400511181,0,0.5
2014-04-01 13:00:00,0.999680511836,0,0.5
2014-04-01 13:05:00,0.999680511836,0,0.5
2014-04-01 13:10:00,0.999680511836,0,0.5
2014-04-01 13:15:00,0.999680511836,0,0.5
2014-04-01 13:20:00,0.999680511836,0,0.5
2014-04-01 13:25:00,0.999680511836,0,0.5
2014-04-01 13:30:00,0.999680511836,0,0.5
2014-04-01 13:35:00,0.999680511836,0,0.5
2014-04-01 13:40:00,0.999680511836,0,0.5
2014-04-01 13:45:00,0.999680511836,0,0.5
2014-04-01 13:50:00,0.999680511836,0,0.5
2014-04-01 13:55:00,0.999680511836,0,0.5
2014-04-01 14:00:00,0.999936511967,0,0.5
2014-04-01 14:05:00,0.999936511967,0,0.5
2014-04-01 14:10:00,0.999936511967,0,0.5
2014-04-01 14:15:00,0.999936511967,0,0.5
2014-04-01 14:20:00,0.999936511967,0,0.5
2014-04-01 14:25:00,0.999936511967,0,0.5
2014-04-01 14:30:00,0.999936511967,0,0.5
2014-04-01 14:35:00,0.999936511967,0,0.5
2014-04-01 14:40:00,0.999936511967,0,0.5
2014-04-01 14:45:00,0.999936511967,0,0.5
2014-04-01 14:50:00,0.999936511967,0,0.5
2014-04-01 14:55:00,0.999936511967,0,0.5
2014-04-01 15:00:00,0.999987711994,0,0.5
2014-04-01 15:05:00,0.999987711994,0,0.5
2014-04-01 15:10:00,0.999987711994,0,0.5
2014-04-01 15:15:00,0.999987711994,0,0.5
2014-04-01 15:20:00,0.999987711994,0,0.5
2014-04-01 15:25:00,0.999987711994,0,0.5
2014-04-01 15:30:00,0.999987711994,0,0.5
2014-04-01 15:35:00,0.999987711994,0,0.5
2014-04-01 15:40:00,0.999987711994,0,0.5
2014-04-01 15:45:00,0.999987711994,0,0.5
2014-04-01 15:50:00,0.999987711994,0,0.5
2014-04-01 15:55:00,0.999987711994,0,0.5
2014-04-01 16:00:00,0.999997951999,0,0.5
2014-04-01 16:05:00,0.999997951999,0,0.5
2014-04-01 16:10:00,0.999997951999,0,0.5
2014-04-01 16:15:00,0.999997951999,0,0.5
2014-04-01 16:20:00,0.999997951999,0,0.5
2014-04-01 16:25:00,0.999997951999,0,0.5
2014-04-01 16:30:00,0.999997951999,0,0.5
2014-04-01 16:35:00,0.999997951999,0,0.5
2014-04-01 16:40:00,0.999997951999,0,0.5
2014-04-01 16:45:00,0.999997951999,0,0.5
2014-04-01 16:50:00,0.999997951999,0,0.5
2014-04-01 16:55:00,0.999997951999,0,0.5
2014-04-01 17:00:00,1.0,0,0.5
2014-04-01 17:05:00,1.0,0,0.5
2014-04-01 17:10:00,1.0,0,0.5
2014-04-01 17:15:00,1.0,0,0.5
2014-04-01 17:20:00,1.0,0,0.5
2014-04-01 17:25:00,1.0,0,0.5
2014-04-01 17:30:00,1.0,0,0.5
2014-04-01 17:35:00,1.0,0,0.5
2014-04-01 17:40:00,1.0,0,0.5
2014-04-01 17:45:00,1.0,0,0.5
2014-04-01 17:50:00,1.0,0,0.5
2014-04-01 17:55:00,1.0,0,0.5
2014-04-01 18:00:00,0.2,0,0.5
2014-04-01 18:05:00,0.2,0,0.5
2014-04-01 18:10:00,0.2,0,0.5
2014-04-01 18:15:00,0.2,0,0.5
2014-04-01 18:20:00,0.2,0,0.5
2014-04-01 18:25:00,0.2,0,0.5
2014-04-01 18:30:00,0.2,0,0.5
2014-04-01 18:35:00,0.2,0,0.5
2014-04-01 18:40:00,0.2,0,0.5
2014-04-01 18:45:00,0.2,0,0.5
2014-04-01 18:50:00,0.2,0,0.5
2014-04-01 18:55:00,0.2,0,0.5
2014-04-01 19:00:00,0.04,0,0.5
2014-04-01 19:05:00,0.04,0,0.5
2014-04-01 19:10:00,0.04,0,0.5
2014-04-01 19:15:00,0.04,0,0.5
2014-04-01 19:20:00,0.04,0,0.5
2014-04-01 19:25:00,0.04,0,0.5
2014-04-01 19:30:00,0.04,0,0.5
2014-04-01 19:35:00,0.04,0,0.5
2014-04-01 19:40:00,0.04,0,0.5
2014-04-01 19:45:00,0.04,0,0.5
2014-04-01 19:50:00,0.04,0,0.5
2014-04-01 19:55:00,0.04,0,0.5
2014-04-01 20:00:00,0.00799999999933,0,0.5
2014-04-01 20:05:00,0.00799999999933,0,0.5
2014-04-01 20:10:00,0.00799999999933,0,0.5
2014-04-01 20:15:00,0.00799999999933,0,0.5
2014-04-01 20:20:00,0.00799999999933,0,0.5
2014-04-01 20:25:00,0.00799999999933,0,0.5
2014-04-01 20:30:00,0.00799999999933,0,0.5
2014-04-01 20:35:00,0.00799999999933,0,0.5
2014-04-01 20:40:00,0.00799999999933,0,0.5
2014-04-01 20:45:00,0.00799999999933,0,0.5
2014-04-01 20:50:00,0.00799999999933,0,0.5
2014-04-01 20:55:00,0.00799999999933,0,0.5
2014-04-01 21:00:00,0.0015999999992,0,0.5
2014-04-01 21:05:00,0.0015999999992,0,0.5
2014-04-01 21:10:00,0.0015999999992,0,0.5
2014-04-01 21:15:00,0.0015999999992,0,0.5
2014-04-01 21:20:00,0.0015999999992,0,0.5
2014-04-01 21:25:00,0.0015999999992,0,0.5
2014-04-01 21:30:00,0.0015999999992,0,0.5
2014-04-01 21:35:00,0.0015999999992,0,0.5
2014-04-01 21:40:00,0.0015999999992,0,0.5
2014-04-01 21:45:00,0.0015999999992,0,0.5
2014-04-01 21:50:00,0.0015999999992,0,0.5
2014-04-01 21:55:00,0.0015999999992,0,0.5
2014-04-01 22:00:00,0.000320000000507,0,0.5
2014-04-01 22:05:00,0.000320000000507,0,0.5
2014-04-01 22:10:00,0.000320000000507,0,0.5
2014-04-01 22:15:00,0.000320000000507,0,0.5
2014-04-01 22:20:00,0.000320000000507,0,0.5
2014-04-01 22:25:00,0.000320000000507,0,0.5
2014-04-01 22:30:00,0.000320000000507,0,0.5
2014-04-01 22:35:00,0.000320000000507,0,0.5
2014-04-01 22:40:00,0.000320000000507,0,0.5
2014-04-01 22:45:00,0.000320000000507,0,0.5
2014-04-01 22:50:00,0.000320000000507,0,0.5
2014-04-01 22:55:00,0.000320000000507,0,0.5
2014-04-01 23:00:00,6.39999994347e-05,0,0.5
2014-04-01 23:05:00,6.39999994347e-05,0,0.5
2014-04-01 23:10:00,6.39999994347e-05,0,0.5
2014-04-01 23:15:00,6.39999994347e-05,0,0.5
2014-04-01 23:20:00,6.39999994347e-05,0,0.5
2014-04-01 23:25:00,6.39999994347e-05,0,0.5
2014-04-01 23:30:00,6.39999994347e-05,0,0.5
2014-04-01 23:35:00,6.39999994347e-05,0,0.5
2014-04-01 23:40:00,6.39999994347e-05,0,0.5
2014-04-01 23:45:00,6.39999994347e-05,0,0.5
2014-04-01 23:50:00,6.39999994347e-05,0,0.5
2014-04-01 23:55:00,6.39999994347e-05,0,0.5
2014-04-02 00:00:00,0.0,0,0.5
2014-04-02 00:05:00,0.0,0,0.5
2014-04-02 00:10:00,0.0,0,0.5
2014-04-02 00:15:00,0.0,0,0.5
2014-04-02 00:20:00,0.0,0,0.5
2014-04-02 00:25:00,0.0,0,0.5
2014-04-02 00:30:00,0.0,0,0.5
2014-04-02 00:35:00,0.0,0,0.5
2014-04-02 00:40:00,0.0,0,0.5
2014-04-02 00:45:00,0.0,0,0.5
2014-04-02 00:50:00,0.0,0,0.5
2014-04-02 00:55:00,0.0,0,0.5
2014-04-02 01:00:00,0.0,0,0.5
2014-04-02 01:05:00,0.0,0,0.5
2014-04-02 01:10:00,0.0,0,0.5
2014-04-02 01:15:00,0.0,0,0.5
2014-04-02 01:20:00,0.0,0,0.5
2014-04-02 01:25:00,0.0,0,0.5
2014-04-02 01:30:00,0.0,0,0.5
2014-04-02 01:35:00,0.0,0,0.5
2014-04-02 01:40:00,0.0,0,0.5
2014-04-02 01:45:00,0.0,0,0.5
2014-04-02 01:50:00,0.0,0,0.5
2014-04-02 01:55:00,0.0,0,0.5
2014-04-02 02:00:00,0.0,0,0.5
2014-04-02 02:05:00,0.0,0,0.5
2014-04-02 02:10:00,0.0,0,0.5
2014-04-02 02:15:00,0.0,0,0.5
2014-04-02 02:20:00,0.0,0,0.5
2014-04-02 02:25:00,0.0,0,0.5
2014-04-02 02:30:00,0.0,0,0.5
2014-04-02 02:35:00,0.0,0,0.5
2014-04-02 02:40:00,0.0,0,0.5
2014-04-02 02:45:00,0.0,0,0.5
2014-04-02 02:50:00,0.0,0,0.5
2014-04-02 02:55:00,0.0,0,0.5
2014-04-02 03:00:00,0.0,0,0.5
2014-04-02 03:05:00,0.0,0,0.5
2014-04-02 03:10:00,0.0,0,0.5
2014-04-02 03:15:00,0.0,0,0.5
2014-04-02 03:20:00,0.0,0,0.5
2014-04-02 03:25:00,0.0,0,0.5
2014-04-02 03:30:00,0.0,0,0.5
2014-04-02 03:35:00,0.0,0,0.5
2014-04-02 03:40:00,0.0,0,0.5
2014-04-02 03:45:00,0.0,0,0.5
2014-04-02 03:50:00,0.0,0,0.5
2014-04-02 03:55:00,0.0,0,0.5
2014-04-02 04:00:00,0.0,0,0.5
2014-04-02 04:05:00,0.0,0,0.5
2014-04-02 04:10:00,0.0,0,0.5
2014-04-02 04:15:00,0.0,0,0.5
2014-04-02 04:20:00,0.0,0,0.5
2014-04-02 04:25:00,0.0,0,0.5
2014-04-02 04:30:00,0.0,0,0.5
2014-04-02 04:35:00,0.0,0,0.5
2014-04-02 04:40:00,0.0,0,0.5
2014-04-02 04:45:00,0.0,0,0.5
2014-04-02 04:50:00,0.0,0,0.5
2014-04-02 04:55:00,0.0,0,0.5
2014-04-02 05:00:00,0.0,0,0.5
2014-04-02 05:05:00,0.0,0,0.5
2014-04-02 05:10:00,0.0,0,0.5
2014-04-02 05:15:00,0.0,0,0.5
2014-04-02 05:20:00,0.0,0,0.5
2014-04-02 05:25:00,0.0,0,0.5
2014-04-02 05:30:00,0.0,0,0.5
2014-04-02 05:35:00,0.0,0,0.5
2014-04-02 05:40:00,0.0,0,0.5
2014-04-02 05:45:00,0.0,0,0.5
2014-04-02 05:50:00,0.0,0,0.5
2014-04-02 05:55:00,0.0,0,0.5
2014-04-02 06:00:00,0.0,0,0.5
2014-04-02 06:05:00,0.0,0,0.5
2014-04-02 06:10:00,0.0,0,0.5
2014-04-02 06:15:00,0.0,0,0.5
2014-04-02 06:20:00,0.0,0,0.5
2014-04-02 06:25:00,0.0,0,0.5
2014-04-02 06:30:00,0.0,0,0.5
2014-04-02 06:35:00,0.0,0,0.5
2014-04-02 06:40:00,0.0,0,0.5
2014-04-02 06:45:00,0.0,0,0.5
2014-04-02 06:50:00,0.0,0,0.5
2014-04-02 06:55:00,0.0,0,0.5
2014-04-02 07:00:00,0.0,0,0.5
2014-04-02 07:05:00,0.0,0,0.5
2014-04-02 07:10:00,0.0,0,0.5
2014-04-02 07:15:00,0.0,0,0.5
2014-04-02 07:20:00,0.0,0,0.5
2014-04-02 07:25:00,0.0,0,0.5
2014-04-02 07:30:00,0.0,0,0.5
2014-04-02 07:35:00,0.0,0,0.5
2014-04-02 07:40:00,0.0,0,0.5
2014-04-02 07:45:00,0.0,0,0.5
2014-04-02 07:50:00,0.0,0,0.5
2014-04-02 07:55:00,0.0,0,0.5
2014-04-02 08:00:00,0.0,0,0.5
2014-04-02 08:05:00,0.0,0,0.5
2014-04-02 08:10:00,0.0,0,0.5
2014-04-02 08:15:00,0.0,0,0.5
2014-04-02 08:20:00,0.0,0,0.500199473045
2014-04-02 08:25:00,0.0,0,0.500199473045
2014-04-02 08:30:00,0.0,0,0.500199473045
2014-04-02 08:35:00,0.0,0,0.500199473045
2014-04-02 08:40:00,0.0,0,0.500199473045
2014-04-02 08:45:00,0.0,0,0.500199473045
2014-04-02 08:50:00,0.0,0,0.500199473045
2014-04-02 08:55:00,0.0,0,0.500199473045
2014-04-02 09:00:00,0.8000004096,0,0.500167557343
2014-04-02 09:05:00,0.8000004096,0,0.500135641641
2014-04-02 09:10:00,0.8000004096,0,0.500103725937
2014-04-02 09:15:00,0.8000004096,0,0.500071810233
2014-04-02 09:20:00,0.8000004096,0,0.999
2014-04-02 09:25:00,0.8000004096,0,0.999
2014-04-02 09:30:00,0.8000004096,0,0.999
2014-04-02 09:35:00,0.8000004096,0,0.999
2014-04-02 09:40:00,0.8000004096,0,0.999
2014-04-02 09:45:00,0.8000004096,0,0.999
2014-04-02 09:50:00,0.8000004096,0,0.999
2014-04-02 09:55:00,0.8000004096,0,0.999
2014-04-02 10:00:00,0.96000049152,0,0.999
2014-04-02 10:05:00,0.96000049152,0,0.999
2014-04-02 10:10:00,0.96000049152,0,0.999
2014-04-02 10:15:00,0.96000049152,0,0.999
2014-04-02 10:20:00,0.96000049152,0,0.999
2014-04-02 10:25:00,0.96000049152,0,0.999
2014-04-02 10:30:00,0.96000049152,0,0.999
2014-04-02 10:35:00,0.96000049152,0,0.999
2014-04-02 10:40:00,0.96000049152,0,0.999
2014-04-02 10:45:00,0.96000049152,0,0.999
2014-04-02 10:50:00,0.96000049152,0,0.999
2014-04-02 10:55:00,0.96000049152,0,0.999
2014-04-02 11:00:00,0.992000507904,0,0.999
2014-04-02 11:05:00,0.992000507904,0,0.999
2014-04-02 11:10:00,0.992000507904,0,0.999
2014-04-02 11:15:00,0.992000507904,0,0.999
2014-04-02 11:20:00,0.992000507904,0,0.999
2014-04-02 11:25:00,0.992000507904,0,0.999
2014-04-02 11:30:00,0.992000507904,0,0.999
2014-04-02 11:35:00,0.992000507904,0,0.999
2014-04-02 11:40:00,0.992000507904,0,0.999
2014-04-02 11:45:00,0.992000507904,0,0.999
2014-04-02 11:50:00,0.992000507904,0,0.999
2014-04-02 11:55:00,0.992000507904,0,0.999
2014-04-02 12:00:00,0.998400511181,0,0.999
2014-04-02 12:05:00,0.998400511181,0,0.999
2014-04-02 12:10:00,0.998400511181,0,0.999
2014-04-02 12:15:00,0.998400511181,0,0.999
2014-04-02 12:20:00,0.998400511181,0,0.999
2014-04-02 12:25:00,0.998400511181,0,0.999
2014-04-02 12:30:00,0.998400511181,0,0.999
2014-04-02 12:35:00,0.998400511181,0,0.999
2014-04-02 12:40:00,0.998400511181,0,0.999
2014-04-02 12:45:00,0.998400511181,0,0.999
2014-04-02 12:50:00,0.998400511181,0,0.999
2014-04-02 12:55:00,0.998400511181,0,0.999
2014-04-02 13:00:00,0.999680511836,0,0.999
2014-04-02 13:05:00,0.999680511836,0,0.999
2014-04-02 13:10:00,0.999680511836,0,0.999
2014-04-02 13:15:00,0.999680511836,0,0.999
2014-04-02 13:20:00,0.999680511836,0,0.999
2014-04-02 13:25:00,0.999680511836,0,0.999
2014-04-02 13:30:00,0.999680511836,0,0.999
2014-04-02 13:35:00,0.999680511836,0,0.999
2014-04-02 13:40:00,0.999680511836,0,0.999
2014-04-02 13:45:00,0.999680511836,0,0.999
2014-04-02 13:50:00,0.999680511836,0,0.999
2014-04-02 13:55:00,0.999680511836,0,0.999
2014-04-02 14:00:00,0.999936511967,0,0.999
2014-04-02 14:05:00,0.999936511967,0,0.999
2014-04-02 14:10:00,0.999936511967,0,0.999
2014-04-02 14:15:00,0.999936511967,0,0.999
2014-04-02 14:20:00,0.999936511967,0,0.999
2014-04-02 14:25:00,0.999936511967,0,0.999
2014-04-02 14:30:00,0.999936511967,0,0.999
2014-04-02 14:35:00,0.999936511967,0,0.999
2014-04-02 14:40:00,0.999936511967,0,0.999
2014-04-02 14:45:00,0.999936511967,0,0.999
2014-04-02 14:50:00,0.999936511967,0,0.999
2014-04-02 14:55:00,0.999936511967,0,0.999
2014-04-02 15:00:00,0.999987711994,0,0.999
2014-04-02 15:05:00,0.999987711994,0,0.999
2014-04-02 15:10:00,0.999987711994,0,0.999
2014-04-02 15:15:00,0.999987711994,0,0.999
2014-04-02 15:20:00,0.999987711994,0,0.999
2014-04-02 15:25:00,0.999987711994,0,0.999
2014-04-02 15:30:00,0.999987711994,0,0.999
2014-04-02 15:35:00,0.999987711994,0,0.999
2014-04-02 15:40:00,0.999987711994,0,0.999
2014-04-02 15:45:00,0.999987711994,0,0.999
2014-04-02 15:50:00,0.999987711994,0,0.999
2014-04-02 15:55:00,0.999987711994,0,0.999
2014-04-02 16:00:00,0.999997951999,0,0.999
2014-04-02 16:05:00,0.999997951999,0,0.999
2014-04-02 16:10:00,0.999997951999,0,0.999
2014-04-02 16:15:00,0.999997951999,0,0.999
2014-04-02 16:20:00,0.999997951999,0,0.999
2014-04-02 16:25:00,0.999997951999,0,0.999
2014-04-02 16:30:00,0.999997951999,0,0.999
2014-04-02 16:35:00,0.999997951999,0,0.999
2014-04-02 16:40:00,0.999997951999,0,0.999
2014-04-02 16:45:00,0.999997951999,0,0.999
2014-04-02 16:50:00,0.999997951999,0,0.999
2014-04-02 16:55:00,0.999997951999,0,0.999
2014-04-02 17:00:00,1.0,0,0.999
2014-04-02 17:05:00,1.0,0,0.999
2014-04-02 17:10:00,1.0,0,0.999
2014-04-02 17:15:00,1.0,0,0.999
2014-04-02 17:20:00,1.0,0,0.999
2014-04-02 17:25:00,1.0,0,0.999
2014-04-02 17:30:00,1.0,0,0.999
2014-04-02 17:35:00,1.0,0,0.999
2014-04-02 17:40:00,1.0,0,0.871504437446
2014-04-02 17:45:00,1.0,0,0.871504526862
2014-04-02 17:50:00,1.0,0,0.871504526862
2014-04-02 17:55:00,1.0,0,0.871504526862
2014-04-02 18:00:00,0.2,0,0.833248925969
2014-04-02 18:05:00,0.2,0,0.78832870142
2014-04-02 18:10:00,0.2,0,0.737020780906
2014-04-02 18:15:00,0.2,0,0.680014524443
2014-04-02 18:20:00,0.2,0,0.618403808747
2014-04-02 18:25:00,0.2,0,0.55363206133
2014-04-02 18:30:00,0.2,0,0.512606456463
2014-04-02 18:35:00,0.2,0,0.578498235267
2014-04-02 18:40:00,0.2,0,0.642258115337
2014-04-02 18:45:00,0.2,0,0.702273056159
2014-04-02 18:50:00,0.2,0,0.702273056159
2014-04-02 18:55:00,0.2,0,0.702273056159
2014-04-02 19:00:00,0.04,0,0.71370424234
2014-04-02 19:05:00,0.04,0,0.724922736507
2014-04-02 19:10:00,0.04,0,0.735920302947
2014-04-02 19:15:00,0.04,0,0.746689352666
2014-04-02 19:20:00,0.04,0,0.757222955255
2014-04-02 19:25:00,0.04,0,0.767514847635
2014-04-02 19:30:00,0.04,0,0.777559439682
2014-04-02 19:35:00,0.04,0,0.787351816772
2014-04-02 19:40:00,0.04,0,0.796887739324
2014-04-02 19:45:00,0.04,0,0.806163639384
2014-04-02 19:50:00,0.04,0,0.806163639384
2014-04-02 19:55:00,0.04,0,0.806163639384
2014-04-02 20:00:00,0.00799999999933,0,0.807987349652
2014-04-02 20:05:00,0.00799999999933,0,0.809800520766
2014-04-02 20:10:00,0.00799999999933,0,0.811603133724
2014-04-02 20:15:00,0.00799999999933,0,0.813395170568
2014-04-02 20:20:00,0.00799999999933,0,0.815176614378
2014-04-02 20:25:00,0.00799999999933,0,0.816947449275
2014-04-02 20:30:00,0.00799999999933,0,0.818707660408
2014-04-02 20:35:00,0.00799999999933,0,0.820457233955
2014-04-02 20:40:00,0.00799999999933,0,0.82219615712
2014-04-02 20:45:00,0.00799999999933,0,0.823924418123
2014-04-02 20:50:00,0.00799999999933,0,0.823924418123
2014-04-02 20:55:00,0.00799999999933,0,0.823924418123
2014-04-02 21:00:00,0.0015999999992,0,0.8242687899
2014-04-02 21:05:00,0.0015999999992,0,0.824612734675
2014-04-02 21:10:00,0.0015999999992,0,0.824956252368
2014-04-02 21:15:00,0.0015999999992,0,0.825299342903
2014-04-02 21:20:00,0.0015999999992,0,0.825642006202
2014-04-02 21:25:00,0.0015999999992,0,0.825984242191
2014-04-02 21:30:00,0.0015999999992,0,0.826326050796
2014-04-02 21:35:00,0.0015999999992,0,0.826667431945
2014-04-02 21:40:00,0.0015999999992,0,0.82700838557
2014-04-02 21:45:00,0.0015999999992,0,0.827348911601
2014-04-02 21:50:00,0.0015999999992,0,0.827348911601
2014-04-02 21:55:00,0.0015999999992,0,0.827348911601
2014-04-02 22:00:00,0.000320000000507,0,0.82741696549
2014-04-02 22:05:00,0.000320000000507,0,0.827485002272
2014-04-02 22:10:00,0.000320000000507,0,0.827553021947
2014-04-02 22:15:00,0.000320000000507,0,0.827621024514
2014-04-02 22:20:00,0.000320000000507,0,0.827689009972
2014-04-02 22:25:00,0.000320000000507,0,0.827756978321
2014-04-02 22:30:00,0.000320000000507,0,0.82782492956
2014-04-02 22:35:00,0.000320000000507,0,0.82789286369
2014-04-02 22:40:00,0.000320000000507,0,0.827960780709
2014-04-02 22:45:00,0.000320000000507,0,0.828028680617
2014-04-02 22:50:00,0.000320000000507,0,0.828028680617
2014-04-02 22:55:00,0.000320000000507,0,0.828028680617
2014-04-02 23:00:00,6.39999994347e-05,0,0.828042258545
2014-04-02 23:05:00,6.39999994347e-05,0,0.828055835789
2014-04-02 23:10:00,6.39999994347e-05,0,0.828069412348
2014-04-02 23:15:00,6.39999994347e-05,0,0.828082988223
2014-04-02 23:20:00,6.39999994347e-05,0,0.828096563413
2014-04-02 23:25:00,6.39999994347e-05,0,0.828110137919
2014-04-02 23:30:00,6.39999994347e-05,0,0.828123711741
2014-04-02 23:35:00,6.39999994347e-05,0,0.828137284878
2014-04-02 23:40:00,6.39999994347e-05,0,0.82815085733
2014-04-02 23:45:00,6.39999994347e-05,0,0.828164429098
2014-04-02 23:50:00,6.39999994347e-05,0,0.828164429098
2014-04-02 23:55:00,6.39999994347e-05,0,0.828164429098
2014-04-03 00:00:00,0.0,0,0.828167821933
2014-04-03 00:05:00,0.0,0,0.828171214725
2014-04-03 00:10:00,0.0,0,0.828174607475
2014-04-03 00:15:00,0.0,0,0.828178000181
2014-04-03 00:20:00,0.0,0,0.828181392845
2014-04-03 00:25:00,0.0,0,0.828184785466
2014-04-03 00:30:00,0.0,0,0.828188178044
2014-04-03 00:35:00,0.0,0,0.82819157058
2014-04-03 00:40:00,0.0,0,0.828194963073
2014-04-03 00:45:00,0.0,0,0.828198355523
2014-04-03 00:50:00,0.0,0,0.828198355523
2014-04-03 00:55:00,0.0,0,0.828198355523
2014-04-03 01:00:00,0.0,0,0.828198355523
2014-04-03 01:05:00,0.0,0,0.828198355523
2014-04-03 01:10:00,0.0,0,0.828198355523
2014-04-03 01:15:00,0.0,0,0.828198355523
2014-04-03 01:20:00,0.0,0,0.828198355523
2014-04-03 01:25:00,0.0,0,0.828198355523
2014-04-03 01:30:00,0.0,0,0.828198355523
2014-04-03 01:35:00,0.0,0,0.828198355523
2014-04-03 01:40:00,0.0,0,0.828198355523
2014-04-03 01:45:00,0.0,0,0.828198355523
2014-04-03 01:50:00,0.0,0,0.828198355523
2014-04-03 01:55:00,0.0,0,0.828198355523
2014-04-03 02:00:00,0.0,0,0.77870003979
2014-04-03 02:05:00,0.0,0,0.77870003979
2014-04-03 02:10:00,0.0,0,0.77870003979
2014-04-03 02:15:00,0.0,0,0.77870003979
2014-04-03 02:20:00,0.0,0,0.77870003979
2014-04-03 02:25:00,0.0,0,0.77870003979
2014-04-03 02:30:00,0.0,0,0.77870003979
2014-04-03 02:35:00,0.0,0,0.77870003979
2014-04-03 02:40:00,0.0,0,0.77870003979
2014-04-03 02:45:00,0.0,0,0.77870003979
2014-04-03 02:50:00,0.0,0,0.77870003979
2014-04-03 02:55:00,0.0,0,0.77870003979
2014-04-03 03:00:00,0.0,0,0.77870003979
2014-04-03 03:05:00,0.0,0,0.77870003979
2014-04-03 03:10:00,0.0,0,0.77870003979
2014-04-03 03:15:00,0.0,0,0.77870003979
2014-04-03 03:20:00,0.0,0,0.77870003979
2014-04-03 03:25:00,0.0,0,0.77870003979
2014-04-03 03:30:00,0.0,0,0.77870003979
2014-04-03 03:35:00,0.0,0,0.77870003979
2014-04-03 03:40:00,0.0,0,0.77870003979
2014-04-03 03:45:00,0.0,0,0.77870003979
2014-04-03 03:50:00,0.0,0,0.77870003979
2014-04-03 03:55:00,0.0,0,0.77870003979
2014-04-03 04:00:00,0.0,0,0.77870003979
2014-04-03 04:05:00,0.0,0,0.77870003979
2014-04-03 04:10:00,0.0,0,0.77870003979
2014-04-03 04:15:00,0.0,0,0.77870003979
2014-04-03 04:20:00,0.0,0,0.77870003979
2014-04-03 04:25:00,0.0,0,0.77870003979
2014-04-03 04:30:00,0.0,0,0.77870003979
2014-04-03 04:35:00,0.0,0,0.77870003979
2014-04-03 04:40:00,0.0,0,0.77870003979
2014-04-03 04:45:00,0.0,0,0.77870003979
2014-04-03 04:50:00,0.0,0,0.77870003979
2014-04-03 04:55:00,0.0,0,0.77870003979
2014-04-03 05:00:00,0.0,0,0.77870003979
2014-04-03 05:05:00,0.0,0,0.77870003979
2014-04-03 05:10:00,0.0,0,0.77870003979
2014-04-03 05:15:00,0.0,0,0.77870003979
2014-04-03 05:20:00,0.0,0,0.77870003979
2014-04-03 05:25:00,0.0,0,0.77870003979
2014-04-03 05:30:00,0.0,0,0.77870003979
2014-04-03 05:35:00,0.0,0,0.77870003979
2014-04-03 05:40:00,0.0,0,0.77870003979
2014-04-03 05:45:00,0.0,0,0.77870003979
2014-04-03 05:50:00,0.0,0,0.77870003979
2014-04-03 05:55:00,0.0,0,0.77870003979
2014-04-03 06:00:00,0.0,0,0.77870003979
2014-04-03 06:05:00,0.0,0,0.77870003979
2014-04-03 06:10:00,0.0,0,0.77870003979
2014-04-03 06:15:00,0.0,0,0.77870003979
2014-04-03 06:20:00,0.0,0,0.77870003979
2014-04-03 06:25:00,0.0,0,0.77870003979
2014-04-03 06:30:00,0.0,0,0.77870003979
2014-04-03 06:35:00,0.0,0,0.77870003979
2014-04-03 06:40:00,0.0,0,0.77870003979
2014-04-03 06:45:00,0.0,0,0.77870003979
2014-04-03 06:50:00,0.0,0,0.77870003979
2014-04-03 06:55:00,0.0,0,0.77870003979
2014-04-03 07:00:00,0.0,0,0.77870003979
2014-04-03 07:05:00,0.0,0,0.77870003979
2014-04-03 07:10:00,0.0,0,0.77870003979
2014-04-03 07:15:00,0.0,0,0.77870003979
2014-04-03 07:20:00,0.0,0,0.77870003979
2014-04-03 07:25:00,0.0,0,0.77870003979
2014-04-03 07:30:00,0.0,0,0.77870003979
2014-04-03 07:35:00,0.0,0,0.77870003979
2014-04-03 07:40:00,0.0,0,0.77870003979
2014-04-03 07:45:00,0.0,0,0.77870003979
2014-04-03 07:50:00,0.0,0,0.77870003979
2014-04-03 07:55:00,0.0,0,0.77870003979
2014-04-03 08:00:00,0.0,0,0.77870003979
2014-04-03 08:05:00,0.0,0,0.77870003979
2014-04-03 08:10:00,0.0,0,0.77870003979
2014-04-03 08:15:00,0.0,0,0.77870003979
2014-04-03 08:20:00,0.0,0,0.77870003979
2014-04-03 08:25:00,0.0,0,0.77870003979
2014-04-03 08:30:00,0.0,0,0.77870003979
2014-04-03 08:35:00,0.0,0,0.77870003979
2014-04-03 08:40:00,0.0,0,0.77870003979
2014-04-03 08:45:00,0.0,0,0.77870003979
2014-04-03 08:50:00,0.0,0,0.77870003979
2014-04-03 08:55:00,0.0,0,0.77870003979
2014-04-03 09:00:00,0.8000004096,0,0.722525651684
2014-04-03 09:05:00,0.8000004096,0,0.660164312254
2014-04-03 09:10:00,0.8000004096,0,0.59307502593
2014-04-03 09:15:00,0.8000004096,0,0.523130847892
2014-04-03 09:20:00,0.8000004096,0,0.547535172739
2014-04-03 09:25:00,0.8000004096,0,0.616723107656
2014-04-03 09:30:00,0.8000004096,0,0.682369485106
2014-04-03 09:35:00,0.8000004096,0,0.742729845174
2014-04-03 09:40:00,0.8000004096,0,0.796513898351
2014-04-03 09:45:00,0.8000004096,0,0.842956428319
2014-04-03 09:50:00,0.8000004096,0,0.842956428319
2014-04-03 09:55:00,0.8000004096,0,0.842956428319
2014-04-03 10:00:00,0.96000049152,0,0.851334224891
2014-04-03 10:05:00,0.96000049152,0,0.859407847256
2014-04-03 10:10:00,0.96000049152,0,0.867178546553
2014-04-03 10:15:00,0.96000049152,0,0.874648275193
2014-04-03 10:20:00,0.96000049152,0,0.919974094598
2014-04-03 10:25:00,0.96000049152,0,0.925442829312
2014-04-03 10:30:00,0.96000049152,0,0.930621585532
2014-04-03 10:35:00,0.96000049152,0,0.935518749167
2014-04-03 10:40:00,0.96000049152,0,0.940143031059
2014-04-03 10:45:00,0.96000049152,0,0.944503412892
2014-04-03 10:50:00,0.96000049152,0,0.944503412892
2014-04-03 10:55:00,0.96000049152,0,0.944503412892
2014-04-03 11:00:00,0.992000507904,0,0.945344627584
2014-04-03 11:05:00,0.992000507904,0,0.946175728236
2014-04-03 11:10:00,0.992000507904,0,0.946996789597
2014-04-03 11:15:00,0.992000507904,0,0.947807886654
2014-04-03 11:20:00,0.992000507904,0,0.948609094614
2014-04-03 11:25:00,0.992000507904,0,0.949400488887
2014-04-03 11:30:00,0.992000507904,0,0.950182145075
2014-04-03 11:35:00,0.992000507904,0,0.950954138951
2014-04-03 11:40:00,0.992000507904,0,0.95171654645
2014-04-03 11:45:00,0.992000507904,0,0.95246944365
2014-04-03 11:50:00,0.992000507904,0,0.95246944365
2014-04-03 11:55:00,0.992000507904,0,0.95246944365
2014-04-03 12:00:00,0.998400511181,0,0.952618888559
2014-04-03 12:05:00,0.998400511181,0,0.952767956713
2014-04-03 12:10:00,0.998400511181,0,0.952916648724
2014-04-03 12:15:00,0.998400511181,0,0.953064965203
2014-04-03 12:20:00,0.998400511181,0,0.953212906759
2014-04-03 12:25:00,0.998400511181,0,0.953360474004
2014-04-03 12:30:00,0.998400511181,0,0.95350766755
2014-04-03 12:35:00,0.998400511181,0,0.953654488006
2014-04-03 12:40:00,0.998400511181,0,0.953800935986
2014-04-03 12:45:00,0.998400511181,0,0.953947012099
2014-04-03 12:50:00,0.998400511181,0,0.953947012099
2014-04-03 12:55:00,0.998400511181,0,0.953947012099
2014-04-03 13:00:00,0.999680511836,0,0.953976182752
2014-04-03 13:05:00,0.999680511836,0,0.954005338559
2014-04-03 13:10:00,0.999680511836,0,0.954034479526
2014-04-03 13:15:00,0.999680511836,0,0.954063605658
2014-04-03 13:20:00,0.999680511836,0,0.954092716959
2014-04-03 13:25:00,0.999680511836,0,0.954121813434
2014-04-03 13:30:00,0.999680511836,0,0.954150895088
2014-04-03 13:35:00,0.999680511836,0,0.954179961927
2014-04-03 13:40:00,0.999680511836,0,0.954209013954
2014-04-03 13:45:00,0.999680511836,0,0.954238051176
2014-04-03 13:50:00,0.999680511836,0,0.954238051176
2014-04-03 13:55:00,0.999680511836,0,0.954238051176
2014-04-03 14:00:00,0.999936511967,0,0.954243856844
2014-04-03 14:05:00,0.999936511967,0,0.95424966192
2014-04-03 14:10:00,0.999936511967,0,0.954255466404
2014-04-03 14:15:00,0.999936511967,0,0.954261270296
2014-04-03 14:20:00,0.999936511967,0,0.954267073596
2014-04-03 14:25:00,0.999936511967,0,0.954272876304
2014-04-03 14:30:00,0.999936511967,0,0.954278678421
2014-04-03 14:35:00,0.999936511967,0,0.954284479945
2014-04-03 14:40:00,0.999936511967,0,0.954290280878
2014-04-03 14:45:00,0.999936511967,0,0.95429608122
2014-04-03 14:50:00,0.999936511967,0,0.95429608122
2014-04-03 14:55:00,0.999936511967,0,0.95429608122
2014-04-03 15:00:00,0.999987711994,0,0.954297241217
2014-04-03 15:05:00,0.999987711994,0,0.954298401191