timestamp,value,is_anomaly,anomaly_score
2014-04-01 00:00:00,0.0046295642704815365,0,0.0046295642704815365
2014-04-01 00:05:00,0.0567253139391802,0,0.0567253139391802
2014-04-01 00:10:00,0.008915191828014816,0,0.008915191828014816
2014-04-01 00:15:00,0.05648746946586378,0,0.05648746946586378
2014-04-01 00:20:00,0.055850611431432585,0,0.055850611431432585
2014-04-01 00:25:00,0.04536335753270539,0,0.04536335753270539
2014-04-01 00:30:00,0.0376809094438933,0,0.0376809094438933
2014-04-01 00:35:00,0.033015487782795824,0,0.033015487782795824
2014-04-01 00:40:00,0.04949530589982319,0,0.04949530589982319
2014-04-01 00:45:00,0.016531494841702108,0,0.016531494841702108
2014-04-01 00:50:00,0.026720349279612258,0,0.026720349279612258
2014-04-01 00:55:00,0.035392497942694764,0,0.035392497942694764
2014-04-01 01:00:00,0.023491161486549256,0,0.023491161486549256
2014-04-01 01:05:00,0.02442269074474967,0,0.02442269074474967
2014-04-01 01:10:00,0.01886633156722334,0,0.01886633156722334
2014-04-01 01:15:00,0.03223948482750125,0,0.03223948482750125
2014-04-01 01:20:00,0.048607732858523926,0,0.048607732858523926
2014-04-01 01:25:00,0.011506217974130609,0,0.011506217974130609
2014-04-01 01:30:00,0.053401348510857455,0,0.053401348510857455
2014-04-01 01:35:00,0.03937663631890608,0,0.03937663631890608
2014-04-01 01:40:00,0.04704710399140481,0,0.04704710399140481
2014-04-01 01:45:00,0.031779828940756004,0,0.031779828940756004
2014-04-01 01:50:00,0.04454584448409788,0,0.04454584448409788
2014-04-01 01:55:00,0.0009122889718313627,0,0.0009122889718313627
2014-04-01 02:00:00,0.04676741687964702,0,0.04676741687964702
2014-04-01 02:05:00,0.0022806865718561845,0,0.0022806865718561845
2014-04-01 02:10:00,0.0508564648901926,0,0.0508564648901926
2014-04-01 02:15:00,0.0566899271984059,0,0.0566899271984059
2014-04-01 02:20:00,0.016796042447744134,0,0.016796042447744134
2014-04-01 02:25:00,0.012008692151188487,0,0.012008692151188487
2014-04-01 02:30:00,0.04373679528985725,0,0.04373679528985725
2014-04-01 02:35:00,0.014450003154744059,0,0.014450003154744059
2014-04-01 02:40:00,0.049464485696379054,0,0.049464485696379054
2014-04-01 02:45:00,0.005865028742131013,0,0.005865028742131013
2014-04-01 02:50:00,0.007186217735606904,0,0.007186217735606904
2014-04-01 02:55:00,0.05595759924881129,0,0.05595759924881129
2014-04-01 03:00:00,0.038504969599671424,0,0.038504969599671424
2014-04-01 03:05:00,0.0483969550126136,0,0.0483969550126136
2014-04-01 03:10:00,0.018525908492327048,0,0.018525908492327048
2014-04-01 03:15:00,0.03865615759765136,0,0.03865615759765136
2014-04-01 03:20:00,0.03395495121743571,0,0.03395495121743571
2014-04-01 03:25:00,0.03446417719285908,0,0.03446417719285908
2014-04-01 03:30:00,0.03900192084578909,0,0.03900192084578909
2014-04-01 03:35:00,0.03287555944397918,0,0.03287555944397918
2014-04-01 03:40:00,0.024512775003391517,0,0.024512775003391517
2014-04-01 03:45:00,0.015758830575245346,0,0.015758830575245346
2014-04-01 03:50:00,0.043920744387045484,0,0.043920744387045484
2014-04-01 03:55:00,0.01292066564251727,0,0.01292066564251727
2014-04-01 04:00:00,0.03956336842206407,0,0.03956336842206407
2014-04-01 04:05:00,0.013324259844537473,0,0.013324259844537473
2014-04-01 04:10:00,0.03573205845012733,0,0.03573205845012733
2014-04-01 04:15:00,0.042691561775600934,0,0.042691561775600934
2014-04-01 04:20:00,0.01248859571171937,0,0.01248859571171937
2014-04-01 04:25:00,0.0034127706174420635,0,0.0034127706174420635
2014-04-01 04:30:00,0.0074730936107635345,0,0.0074730936107635345
2014-04-01 04:35:00,0.034626911910421526,0,0.034626911910421526
2014-04-01 04:40:00,0.04854324587596885,0,0.04854324587596885
2014-04-01 04:45:00,0.002558382934447816,0,0.002558382934447816
2014-04-01 04:50:00,0.041952613424259814,0,0.041952613424259814
2014-04-01 04:55:00,0.01949706840416629,0,0.01949706840416629
2014-04-01 05:00:00,0.02734040684188117,0,0.02734040684188117
2014-04-01 05:05:00,0.05308275039364595,0,0.05308275039364595
2014-04-01 05:10:00,0.018962756476928917,0,0.018962756476928917
2014-04-01 05:15:00,0.026586342961902633,0,0.026586342961902633
2014-04-01 05:20:00,0.0007683531840465243,0,0.0007683531840465243
2014-04-01 05:25:00,0.0046506623388405405,0,0.0046506623388405405
2014-04-01 05:30:00,0.014768130322007519,0,0.014768130322007519
2014-04-01 05:35:00,0.0015783449126942294,0,0.0015783449126942294
2014-04-01 05:40:00,0.036077618544758536,0,0.036077618544758536
2014-04-01 05:45:00,0.02436049168822638,0,0.02436049168822638
2014-04-01 05:50:00,0.031319923488323104,0,0.031319923488323104
2014-04-01 05:55:00,0.00996960467048497,0,0.00996960467048497
2014-04-01 06:00:00,0.01690262696346181,0,0.01690262696346181
2014-04-01 06:05:00,0.03793251372770155,0,0.03793251372770155
2014-04-01 06:10:00,0.0551659565789004,0,0.0551659565789004
2014-04-01 06:15:00,0.002868204422035441,0,0.002868204422035441
2014-04-01 06:20:00,0.05088338555438303,0,0.05088338555438303
2014-04-01 06:25:00,0.03296256335115442,0,0.03296256335115442
2014-04-01 06:30:00,0.032221635641831496,0,0.032221635641831496
2014-04-01 06:35:00,0.028583714549133325,0,0.028583714549133325
2014-04-01 06:40:00,0.003953007150989458,0,0.003953007150989458
2014-04-01 06:45:00,0.00512386632810732,0,0.00512386632810732
2014-04-01 06:50:00,0.034336239545429845,0,0.034336239545429845
2014-04-01 06:55:00,0.01947648541426904,0,0.01947648541426904
2014-04-01 07:00:00,0.05242014483124791,0,0.05242014483124791
2014-04-01 07:05:00,0.023228214564137088,0,0.023228214564137088
2014-04-01 07:10:00,0.008176641266379127,0,0.008176641266379127
2014-04-01 07:15:00,0.04084179499362061,0,0.04084179499362061
2014-04-01 07:20:00,0.016755225638976964,0,0.016755225638976964
2014-04-01 07:25:00,0.03002375530640688,0,0.03002375530640688
2014-04-01 07:30:00,0.03987653549522216,0,0.03987653549522216
2014-04-01 07:35:00,0.051448145377257115,0,0.051448145377257115
2014-04-01 07:40:00,0.04527035830270169,0,0.04527035830270169
2014-04-01 07:45:00,0.03864914472951658,0,0.03864914472951658
2014-04-01 07:50:00,0.038836189064881725,0,0.038836189064881725
2014-04-01 07:55:00,0.054058244733321104,0,0.054058244733321104
2014-04-01 08:00:00,0.01689645723589815,0,0.01689645723589815
2014-04-01 08:05:00,4.97942110529104e-05,0,4.97942110529104e-05
2014-04-01 08:10:00,0.01553199952658639,0,0.01553199952658639
2014-04-01 08:15:00,0.01244157850021939,0,0.01244157850021939
2014-04-01 08:20:00,0.03781876538600418,0,0.03781876538600418
2014-04-01 08:25:00,0.03621116728297809,0,0.03621116728297809
2014-04-01 08:30:00,0.03391033855477338,0,0.03391033855477338
2014-04-01 08:35:00,0.0009147496077112508,0,0.0009147496077112508
2014-04-01 08:40:00,0.041645464186203164,0,0.041645464186203164
2014-04-01 08:45:00,0.018480237152622196,0,0.018480237152622196
2014-04-01 08:50:00,0.03800291094146639,0,0.03800291094146639
2014-04-01 08:55:00,0.031801993140230835,0,0.031801993140230835
2014-04-01 09:00:00,0.6839594739162838,0,0.6839594739162838
2014-04-01 09:05:00,0.6435036438913374,0,0.6435036438913374
2014-04-01 09:10:00,0.6356988715867171,0,0.6356988715867171
2014-04-01 09:15:00,0.7789575894658105,0,0.7789575894658105
2014-04-01 09:20:00,0.7958429694958504,0,0.7958429694958504
2014-04-01 09:25:00,0.7436374595489732,0,0.7436374595489732
2014-04-01 09:30:00,0.6374510211545389,0,0.6374510211545389
2014-04-01 09:35:00,0.6954839851036231,0,0.6954839851036231
2014-04-01 09:40:00,0.7590208558732252,0,0.7590208558732252
2014-04-01 09:45:00,0.7689099487813478,0,0.7689099487813478
2014-04-01 09:50:00,0.6403244592248784,0,0.6403244592248784
2014-04-01 09:55:00,0.6173540881967802,0,0.6173540881967802
2014-04-01 10:00:00,0.8987674920897543,0,0.8987674920897543
2014-04-01 10:05:00,0.8199110241501313,0,0.8199110241501313
2014-04-01 10:10:00,0.7972626688332205,0,0.7972626688332205
2014-04-01 10:15:00,0.7436810649499777,0,0.7436810649499777
2014-04-01 10:20:00,0.8606551105671782,0,0.8606551105671782
2014-04-01 10:25:00,0.9295997521215126,0,0.9295997521215126
2014-04-01 10:30:00,0.9532164703207456,0,0.9532164703207456
2014-04-01 10:35:00,0.8662987534868785,0,0.8662987534868785
2014-04-01 10:40:00,0.8549244061041396,0,0.8549244061041396
2014-04-01 10:45:00,0.7596854056725727,0,0.7596854056725727
2014-04-01 10:50:00,0.8625566293176723,0,0.8625566293176723
2014-04-01 10:55:00,0.8250971878096293,0,0.8250971878096293
2014-04-01 11:00:00,0.9035050666046528,0,0.9035050666046528
2014-04-01 11:05:00,0.8538649449276855,0,0.8538649449276855
2014-04-01 11:10:00,0.8201303106391564,0,0.8201303106391564
2014-04-01 11:15:00,0.7870987408662554,0,0.7870987408662554
2014-04-01 11:20:00,0.8370898375661895,0,0.8370898375661895
2014-04-01 11:25:00,0.7874804721213982,0,0.7874804721213982
2014-04-01 11:30:00,0.8057202243824667,0,0.8057202243824667
2014-04-01 11:35:00,0.9899173647196088,0,0.9899173647196088
2014-04-01 11:40:00,0.8664511123359854,0,0.8664511123359854
2014-04-01 11:45:00,0.8863991270253399,0,0.8863991270253399
2014-04-01 11:50:00,0.9640715492378866,0,0.9640715492378866
2014-04-01 11:55:00,0.9917885075557192,0,0.9917885075557192
2014-04-01 12:00:00,0.9035331274876736,0,0.9035331274876736
2014-04-01 12:05:00,0.9560051524343298,0,0.9560051524343298
2014-04-01 12:10:00,0.8451200606397516,0,0.8451200606397516
2014-04-01 12:15:00,0.8402791132857671,0,0.8402791132857671
2014-04-01 12:20:00,0.8624226066898903,0,0.8624226066898903
2014-04-01 12:25:00,0.9240398459126578,0,0.9240398459126578
2014-04-01 12:30:00,0.9262515575367912,0,0.9262515575367912
2014-04-01 12:35:00,0.8424476729955054,0,0.8424476729955054
2014-04-01 12:40:00,0.8008761064207072,0,0.8008761064207072
2014-04-01 12:45:00,0.9148793677009692,0,0.9148793677009692
2014-04-01 12:50:00,0.7997606932898885,0,0.7997606932898885
2014-04-01 12:55:00,0.9025689282997544,0,0.9025689282997544
2014-04-01 13:00:00,0.9299563342652896,0,0.9299563342652896
2014-04-01 13:05:00,0.9315998071665365,0,0.9315998071665365
2014-04-01 13:10:00,0.9436836207847769,0,0.9436836207847769
2014-04-01 13:15:00,0.9709752827078894,0,0.9709752827078894
2014-04-01 13:20:00,0.8857311107932602,0,0.8857311107932602
2014-04-01 13:25:00,0.9383749149650018,0,0.9383749149650018
2014-04-01 13:30:00,0.9129830955862442,0,0.9129830955862442
2014-04-01 13:35:00,0.8141071033459707,0,0.8141071033459707
2014-04-01 13:40:00,0.7773142398325842,0,0.7773142398325842
2014-04-01 13:45:00,0.8364871464368832,0,0.8364871464368832
2014-04-01 13:50:00,0.8727181227437302,0,0.8727181227437302
2014-04-01 13:55:00,0.912510631979662,0,0.912510631979662
2014-04-01 14:00:00,0.9659752452079916,0,0.9659752452079916
2014-04-01 14:05:00,0.8165091328783475,0,0.8165091328783475
2014-04-01 14:10:00,0.8003451046021673,0,0.8003451046021673
2014-04-01 14:15:00,0.9919307782270136,0,0.9919307782270136
2014-04-01 14:20:00,0.7963426810698917,0,0.7963426810698917
2014-04-01 14:25:00,0.8810421559112509,0,0.8810421559112509
2014-04-01 14:30:00,0.9055234175709894,0,0.9055234175709894
2014-04-01 14:35:00,0.8954199044789563,0,0.8954199044789563
2014-04-01 14:40:00,0.7913097306583521,0,0.7913097306583521
2014-04-01 14:45:00,0.7846779261175381,0,0.7846779261175381
2014-04-01 14:50:00,0.7957570998268123,0,0.7957570998268123
2014-04-01 14:55:00,0.9055288946985356,0,0.9055288946985356
2014-04-01 15:00:00,0.8961433673289668,0,0.8961433673289668
2014-04-01 15:05:00,0.8251236295410392,0,0.8251236295410392
2014-04-01 15:10:00,0.9175059997913462,0,0.9175059997913462
2014-04-01 15:15:00,0.9591874419423729,0,0.9591874419423729
2014-04-01 15:20:00,0.7811857577344035,0,0.7811857577344035
2014-04-01 15:25:00,0.8855763037984188,0,0.8855763037984188
2014-04-01 15:30:00,0.929289786458486,0,0.929289786458486
2014-04-01 15:35:00,0.8293699262227223,0,0.8293699262227223
2014-04-01 15:40:00,0.8420506414718947,0,0.8420506414718947
2014-04-01 15:45:00,0.91198724012539,0,0.91198724012539
2014-04-01 15:50:00,0.9769919403530029,0,0.9769919403530029
2014-04-01 15:55:00,0.9568682226649966,0,0.9568682226649966
2014-04-01 16:00:00,0.9050205735084119,0,0.9050205735084119
2014-04-01 16:05:00,0.938653355698836,0,0.938653355698836
2014-04-01 16:10:00,0.8551040451178434,0,0.8551040451178434
2014-04-01 16:15:00,0.918244739202842,0,0.918244739202842
2014-04-01 16:20:00,0.8782800224370071,0,0.8782800224370071
2014-04-01 16:25:00,0.8151159151122367,0,0.8151159151122367
2014-04-01 16:30:00,0.9321405560275694,0,0.9321405560275694
2014-04-01 16:35:00,0.898923431857927,0,0.898923431857927
2014-04-01 16:40:00,0.8536861989065258,0,0.8536861989065258
2014-04-01 16:45:00,0.9800662487140956,0,0.9800662487140956
2014-04-01 16:50:00,0.7764732462003119,0,0.7764732462003119
2014-04-01 16:55:00,0.8438888146233628,0,0.8438888146233628
2014-04-01 17:00:00,0.7846942681956355,0,0.7846942681956355
2014-04-01 17:05:00,0.9469565572139492,0,0.9469565572139492
2014-04-01 17:10:00,0.9322267969040248,0,0.9322267969040248
2014-04-01 17:15:00,0.8474526981678645,0,0.8474526981678645
2014-04-01 17:20:00,0.9261801849055241,0,0.9261801849055241
2014-04-01 17:25:00,0.862220219369473,0,0.862220219369473
2014-04-01 17:30:00,0.9446074904368112,0,0.9446074904368112
2014-04-01 17:35:00,0.8755384107023577,0,0.8755384107023577
2014-04-01 17:40:00,0.8659569726645451,0,0.8659569726645451
2014-04-01 17:45:00,0.9854164962712678,0,0.9854164962712678
2014-04-01 17:50:00,0.8290523211221142,0,0.8290523211221142
2014-04-01 17:55:00,0.7992287776171173,0,0.7992287776171173
2014-04-01 18:00:00,0.20778951792614828,0,0.20778951792614828
2014-04-01 18:05:00,0.24298176399321506,0,0.24298176399321506
2014-04-01 18:10:00,0.1888841717781518,0,0.1888841717781518
2014-04-01 18:15:00,0.16000056267774992,0,0.16000056267774992
2014-04-01 18:20:00,0.1853598183559068,0,0.1853598183559068
2014-04-01 18:25:00,0.20059963497871186,0,0.20059963497871186
2014-04-01 18:30:00,0.16913625873255222,0,0.16913625873255222
2014-04-01 18:35:00,0.2145173074920271,0,0.2145173074920271
2014-04-01 18:40:00,0.24558177869700296,0,0.24558177869700296
2014-04-01 18:45:00,0.19564316394743425,0,0.19564316394743425
2014-04-01 18:50:00,0.1867704478896361,0,0.1867704478896361
2014-04-01 18:55:00,0.19097542334215706,0,0.19097542334215706
2014-04-01 19:00:00,0.03822627288930367,0,0.03822627288930367
2014-04-01 19:05:00,0.08740387326288836,0,0.08740387326288836
2014-04-01 19:10:00,0.05741256558590064,0,0.05741256558590064
2014-04-01 19:15:00,0.05564866023432125,0,0.05564866023432125
2014-04-01 19:20:00,0.07308946233424153,0,0.07308946233424153
2014-04-01 19:25:00,0.05915448049965506,0,0.05915448049965506
2014-04-01 19:30:00,0.072355966668918,0,0.072355966668918
2014-04-01 19:35:00,0.03478826043759831,0,0.03478826043759831
2014-04-01 19:40:00,0.08295107718184061,0,0.08295107718184061
2014-04-01 19:45:00,0.09106791554041094,0,0.09106791554041094
2014-04-01 19:50:00,0.07239002145997962,0,0.07239002145997962
2014-04-01 19:55:00,0.09196820137215236,0,0.09196820137215236
2014-04-01 20:00:00,0.015023937745642668,0,0.015023937745642668
2014-04-01 20:05:00,0.034105421150649434,0,0.034105421150649434
2014-04-01 20:10:00,0.04138662826235514,0,0.04138662826235514
2014-04-01 20:15:00,0.04021182468435264,0,0.04021182468435264
2014-04-01 20:20:00,0.02965942571243985,0,0.02965942571243985
2014-04-01 20:25:00,0.02594962801823944,0,0.02594962801823944
2014-04-01 20:30:00,0.01358349007971402,0,0.01358349007971402
2014-04-01 20:35:00,0.029090504303053193,0,0.029090504303053193
2014-04-01 20:40:00,0.015681198631773054,0,0.015681198631773054
2014-04-01 20:45:00,0.049145972988041665,0,0.049145972988041665
2014-04-01 20:50:00,0.018383769074743653,0,0.018383769074743653
2014-04-01 20:55:00,0.009587962448359341,0,0.009587962448359341
2014-04-01 21:00:00,0.032947488376905566,0,0.032947488376905566
2014-04-01 21:05:00,0.035409467023249964,0,0.035409467023249964
2014-04-01 21:10:00,0.05130147159947405,0,0.05130147159947405
2014-04-01 21:15:00,0.0343613402238974,0,0.0343613402238974
2014-04-01 21:20:00,0.02106451046714877,0,0.02106451046714877
2014-04-01 21:25:00,0.04734395861983642,0,0.04734395861983642
2014-04-01 21:30:00,0.032253227007451986,0,0.032253227007451986
2014-04-01 21:35:00,0.005774609610391964,0,0.005774609610391964
2014-04-01 21:40:00,0.033722000181717914,0,0.033722000181717914
2014-04-01 21:45:00,0.053375281113688125,0,0.053375281113688125
2014-04-01 21:50:00,0.023984161440765976,0,0.023984161440765976
2014-04-01 21:55:00,0.018241166129845644,0,0.018241166129845644
2014-04-01 22:00:00,0.008442205586003825,0,0.008442205586003825
2014-04-01 22:05:00,0.00889858018713479,0,0.00889858018713479
2014-04-01 22:10:00,0.024995493312582828,0,0.024995493312582828
2014-04-01 22:15:00,0.03431678513737713,0,0.03431678513737713
2014-04-01 22:20:00,0.00484582150616954,0,0.00484582150616954
2014-04-01 22:25:00,0.05399341762866363,0,0.05399341762866363
2014-04-01 22:30:00,0.04344041466531447,0,0.04344041466531447
2014-04-01 22:35:00,0.03379862417900392,0,0.03379862417900392
2014-04-01 22:40:00,0.047634784313514096,0,0.047634784313514096
2014-04-01 22:45:00,0.004821295098593652,0,0.004821295098593652
2014-04-01 22:50:00,0.027516942085809758,0,0.027516942085809758
2014-04-01 22:55:00,0.03628584600580352,0,0.03628584600580352
2014-04-01 23:00:00,0.04741310780652099,0,0.04741310780652099
2014-04-01 23:05:00,0.044829790041019064,0,0.044829790041019064
2014-04-01 23:10:00,0.015876801126392625,0,0.015876801126392625
2014-04-01 23:15:00,0.05382960212621485,0,0.05382960212621485
2014-04-01 23:20:00,0.007144975617370342,0,0.007144975617370342
2014-04-01 23:25:00,0.050070601347833615,0,0.050070601347833615
2014-04-01 23:30:00,0.05554826056010104,0,0.05554826056010104
2014-04-01 23:35:00,0.010164208020612478,0,0.010164208020612478
2014-04-01 23:40:00,0.04131909958919303,0,0.04131909958919303
2014-04-01 23:45:00,0.002338901173283704,0,0.002338901173283704
2014-04-01 23:50:00,0.023215303040328025,0,0.023215303040328025
2014-04-01 23:55:00,0.029553652387386206,0,0.029553652387386206
2014-04-02 00:00:00,0.033177726810203874,0,0.033177726810203874
2014-04-02 00:05:00,0.05348733384664806,0,0.05348733384664806
2014-04-02 00:10:00,0.03841418247594185,0,0.03841418247594185
2014-04-02 00:15:00,0.02749758153820109,0,0.02749758153820109
2014-04-02 00:20:00,0.0462697895522301,0,0.0462697895522301
2014-04-02 00:25:00,0.054321662588532514,0,0.054321662588532514
2014-04-02 00:30:00,0.0012475937264843846,0,0.0012475937264843846
2014-04-02 00:35:00,0.056150222856534926,0,0.056150222856534926
2014-04-02 00:40:00,0.00490980680072797,0,0.00490980680072797
2014-04-02 00:45:00,0.04653912756931747,0,0.04653912756931747
2014-04-02 00:50:00,0.01601103766721296,0,0.01601103766721296
2014-04-02 00:55:00,0.007542027482483914,0,0.007542027482483914
2014-04-02 01:00:00,0.025129752214193862,0,0.025129752214193862
2014-04-02 01:05:00,0.036796802473769485,0,0.036796802473769485
2014-04-02 01:10:00,0.021762626447058276,0,0.021762626447058276
2014-04-02 01:15:00,0.0031053534000217912,0,0.0031053534000217912
2014-04-02 01:20:00,0.03425330349151106,0,0.03425330349151106
2014-04-02 01:25:00,0.051570426756438636,0,0.051570426756438636
2014-04-02 01:30:00,0.021892016406904413,0,0.021892016406904413
2014-04-02 01:35:00,0.012352483918424818,0,0.012352483918424818
2014-04-02 01:40:00,0.02528533348231528,0,0.02528533348231528
2014-04-02 01:45:00,0.002750787760262828,0,0.002750787760262828
2014-04-02 01:50:00,0.04688786874115227,0,0.04688786874115227
2014-04-02 01:55:00,0.0472224575360717,0,0.0472224575360717
2014-04-02 02:00:00,0.033598175270612325,0,0.033598175270612325
2014-04-02 02:05:00,0.02017069271739724,0,0.02017069271739724
2014-04-02 02:10:00,0.045704350546956506,0,0.045704350546956506
2014-04-02 02:15:00,0.031693874568808365,0,0.031693874568808365
2014-04-02 02:20:00,0.04719910625685477,0,0.04719910625685477
2014-04-02 02:25:00,0.03608238975327658,0,0.03608238975327658
2014-04-02 02:30:00,0.044825302022975695,0,0.044825302022975695
2014-04-02 02:35:00,0.03420196262313952,0,0.03420196262313952
2014-04-02 02:40:00,0.023659826605334874,0,0.023659826605334874
2014-04-02 02:45:00,0.054745415161225414,0,0.054745415161225414
2014-04-02 02:50:00,0.03091798786333017,0,0.03091798786333017
2014-04-02 02:55:00,0.03457503929338788,0,0.03457503929338788
2014-04-02 03:00:00,0.01258998885841929,0,0.01258998885841929
2014-04-02 03:05:00,0.035750386065541886,0,0.035750386065541886
2014-04-02 03:10:00,0.03266111057846435,0,0.03266111057846435
2014-04-02 03:15:00,0.01055216633508854,0,0.01055216633508854
2014-04-02 03:20:00,0.00339240890748264,0,0.00339240890748264
2014-04-02 03:25:00,0.03453329883691455,0,0.03453329883691455
2014-04-02 03:30:00,0.04364127028371926,0,0.04364127028371926
2014-04-02 03:35:00,0.029905488407259487,0,0.029905488407259487
2014-04-02 03:40:00,0.012949258377093832,0,0.012949258377093832
2014-04-02 03:45:00,0.03808671139921475,0,0.03808671139921475
2014-04-02 03:50:00,0.004565318150526281,0,0.004565318150526281
2014-04-02 03:55:00,0.02524282462178704,0,0.02524282462178704
2014-04-02 04:00:00,0.009324780032394982,0,0.009324780032394982
2014-04-02 04:05:00,0.010530481675752443,0,0.010530481675752443
2014-04-02 04:10:00,0.011549980423712523,0,0.011549980423712523
2014-04-02 04:15:00,0.022091612428409752,0,0.022091612428409752
2014-04-02 04:20:00,0.002910129698367769,0,0.002910129698367769
2014-04-02 04:25:00,0.022725344923913447,0,0.022725344923913447
2014-04-02 04:30:00,0.029237027022955837,0,0.029237027022955837
2014-04-02 04:35:00,0.027612841503358663,0,0.027612841503358663
2014-04-02 04:40:00,0.021867363914594245,0,0.021867363914594245
2014-04-02 04:45:00,0.0479544770891056,0,0.0479544770891056
2014-04-02 04:50:00,0.008293553244806596,0,0.008293553244806596
2014-04-02 04:55:00,0.028893436355640286,0,0.028893436355640286
2014-04-02 05:00:00,0.0035327055183891477,0,0.0035327055183891477
2014-04-02 05:05:00,0.0040537053339764215,0,0.0040537053339764215
2014-04-02 05:10:00,0.032790196388971016,0,0.032790196388971016
2014-04-02 05:15:00,0.03234161296068542,0,0.03234161296068542
2014-04-02 05:20:00,0.0501773746076597,0,0.0501773746076597
2014-04-02 05:25:00,0.03187603353229361,0,0.03187603353229361
2014-04-02 05:30:00,0.054850890324778405,0,0.054850890324778405
2014-04-02 05:35:00,0.002769773773559697,0,0.002769773773559697
2014-04-02 05:40:00,0.005588650262832878,0,0.005588650262832878
2014-04-02 05:45:00,0.002505166359155125,0,0.002505166359155125
2014-04-02 05:50:00,0.0105772296488707,0,0.0105772296488707
2014-04-02 05:55:00,0.03092692166586116,0,0.03092692166586116
2014-04-02 06:00:00,0.036889155353022215,0,0.036889155353022215
2014-04-02 06:05:00,0.002592014108068925,0,0.002592014108068925
2014-04-02 06:10:00,0.054060888289814736,0,0.054060888289814736
2014-04-02 06:15:00,0.04812703937487468,0,0.04812703937487468
2014-04-02 06:20:00,0.016941523776737303,0,0.016941523776737303
2014-04-02 06:25:00,0.004398504887342287,0,0.004398504887342287
2014-04-02 06:30:00,0.009697501690972492,0,0.009697501690972492
2014-04-02 06:35:00,0.007242764505295101,0,0.007242764505295101
2014-04-02 06:40:00,0.007033511151696487,0,0.007033511151696487
2014-04-02 06:45:00,0.029628836981121003,0,0.029628836981121003
2014-04-02 06:50:00,0.014039634790709512,0,0.014039634790709512
2014-04-02 06:55:00,0.02045861358902831,0,0.02045861358902831
2014-04-02 07:00:00,0.056549453709029314,0,0.056549453709029314
2014-04-02 07:05:00,0.039103773518383914,0,0.039103773518383914
2014-04-02 07:10:00,0.05423293660037052,0,0.05423293660037052
2014-04-02 07:15:00,0.008135203497297967,0,0.008135203497297967
2014-04-02 07:20:00,0.021830515093651692,0,0.021830515093651692
2014-04-02 07:25:00,0.031696434246970925,0,0.031696434246970925
2014-04-02 07:30:00,0.0043739551300534755,0,0.0043739551300534755
2014-04-02 07:35:00,0.00022559083577975377,0,0.00022559083577975377
2014-04-02 07:40:00,0.038310354009486944,0,0.038310354009486944
2014-04-02 07:45:00,0.0366746412657956,0,0.0366746412657956
2014-04-02 07:50:00,0.023468201004556904,0,0.023468201004556904
2014-04-02 07:55:00,0.027975815487789952,0,0.027975815487789952
2014-04-02 08:00:00,0.0237342491458394,0,0.0237342491458394
2014-04-02 08:05:00,0.0013584271168269426,0,0.0013584271168269426
2014-04-02 08:10:00,0.019157116949455908,0,0.019157116949455908
2014-04-02 08:15:00,0.01010880088526157,0,0.01010880088526157
2014-04-02 08:20:00,0.005612458957195836,0,0.005612458957195836
2014-04-02 08:25:00,0.05467536596379241,0,0.05467536596379241
2014-04-02 08:30:00,0.03424750631469823,0,0.03424750631469823
2014-04-02 08:35:00,0.04163850341798175,0,0.04163850341798175
2014-04-02 08:40:00,0.018013404711095457,0,0.018013404711095457
2014-04-02 08:45:00,0.022459747181001768,0,0.022459747181001768
2014-04-02 08:50:00,0.013529542463622651,0,0.013529542463622651
2014-04-02 08:55:00,0.005529085483796806,0,0.005529085483796806
2014-04-02 09:00:00,0.6521437527439791,0,0.6521437527439791
2014-04-02 09:05:00,0.7723486973127827,0,0.7723486973127827
2014-04-02 09:10:00,0.7490323095394642,0,0.7490323095394642
2014-04-02 09:15:00,0.7236462993074806,0,0.7236462993074806
2014-04-02 09:20:00,0.709684053529767,0,0.709684053529767
2014-04-02 09:25:00,0.7966275290741401,0,0.7966275290741401
2014-04-02 09:30:00,0.6314844946528775,0,0.6314844946528775
2014-04-02 09:35:00,0.6718841964351987,0,0.6718841964351987
2014-04-02 09:40:00,0.6853601740613952,0,0.6853601740613952
2014-04-02 09:45:00,0.7694162287443962,0,0.7694162287443962
2014-04-02 09:50:00,0.8102479697823459,0,0.8102479697823459
2014-04-02 09:55:00,0.6641235564328107,0,0.6641235564328107
2014-04-02 10:00:00,0.9347357230842908,0,0.9347357230842908
2014-04-02 10:05:00,0.925046791438218,0,0.925046791438218
2014-04-02 10:10:00,0.7906479297342932,0,0.7906479297342932
2014-04-02 10:15:00,0.8293896584622055,0,0.8293896584622055
2014-04-02 10:20:00,0.8316830619616858,0,0.8316830619616858
2014-04-02 10:25:00,0.9577829708564912,0,0.9577829708564912
2014-04-02 10:30:00,0.7809410500331866,0,0.7809410500331866
2014-04-02 10:35:00,0.9180681221456009,0,0.9180681221456009
2014-04-02 10:40:00,0.8149420936625791,0,0.8149420936625791
2014-04-02 10:45:00,0.9029224064393874,0,0.9029224064393874
2014-04-02 10:50:00,0.8339759877002303,0,0.8339759877002303
2014-04-02 10:55:00,0.8690966303055605,0,0.8690966303055605
2014-04-02 11:00:00,0.9547515076995458,0,0.9547515076995458
2014-04-02 11:05:00,0.9482862353136084,0,0.9482862353136084
2014-04-02 11:10:00,0.9624361865898364,0,0.9624361865898364
2014-04-02 11:15:00,0.7790648362593584,0,0.7790648362593584
2014-04-02 11:20:00,0.922804663849777,0,0.922804663849777
2014-04-02 11:25:00,0.7973313928261909,0,0.7973313928261909
2014-04-02 11:30:00,0.8600224820119192,0,0.8600224820119192
2014-04-02 11:35:00,0.8901984975753102,0,0.8901984975753102
2014-04-02 11:40:00,0.8570498596185608,0,0.8570498596185608
2014-04-02 11:45:00,0.8836126457869024,0,0.8836126457869024
2014-04-02 11:50:00,0.9920061079265172,0,0.9920061079265172
2014-04-02 11:55:00,0.7962472498613183,0,0.7962472498613183
2014-04-02 12:00:00,0.9247132835024972,0,0.9247132835024972
2014-04-02 12:05:00,0.8608918438548224,0,0.8608918438548224
2014-04-02 12:10:00,0.8008304021879034,0,0.8008304021879034
2014-04-02 12:15:00,0.8067058792627713,0,0.8067058792627713
2014-04-02 12:20:00,0.9872471229052648,0,0.9872471229052648
2014-04-02 12:25:00,0.9713356481896924,0,0.9713356481896924
2014-04-02 12:30:00,0.9776024510852414,0,0.9776024510852414
2014-04-02 12:35:00,0.9968983089264984,0,0.9968983089264984
2014-04-02 12:40:00,0.8180285553056027,0,0.8180285553056027
2014-04-02 12:45:00,0.8516284532288333,0,0.8516284532288333
2014-04-02 12:50:00,0.9232888853337168,0,0.9232888853337168
2014-04-02 12:55:00,0.8809438065659068,0,0.8809438065659068
2014-04-02 13:00:00,0.8670845220555409,0,0.8670845220555409
2014-04-02 13:05:00,0.8532364670550704,0,0.8532364670550704
2014-04-02 13:10:00,0.9071785197339614,0,0.9071785197339614
2014-04-02 13:15:00,0.9030209673097794,0,0.9030209673097794
2014-04-02 13:20:00,0.8083505324756445,0,0.8083505324756445
2014-04-02 13:25:00,0.8792802776431574,0,0.8792802776431574
2014-04-02 13:30:00,0.8979640089546127,0,0.8979640089546127
2014-04-02 13:35:00,0.9018079160445228,0,0.9018079160445228
2014-04-02 13:40:00,0.8194716628909734,0,0.8194716628909734
2014-04-02 13:45:00,0.9411231625783172,0,0.9411231625783172
2014-04-02 13:50:00,0.7772021012305871,0,0.7772021012305871
2014-04-02 13:55:00,0.8525553845557077,0,0.8525553845557077
2014-04-02 14:00:00,0.9500282537712426,0,0.9500282537712426
2014-04-02 14:05:00,0.9005685698899549,0,0.9005685698899549
2014-04-02 14:10:00,0.8313517932289956,0,0.8313517932289956
2014-04-02 14:15:00,0.9305343804621108,0,0.9305343804621108
2014-04-02 14:20:00,0.9013683634131814,0,0.9013683634131814
2014-04-02 14:25:00,0.9536935979749686,0,0.9536935979749686
2014-04-02 14:30:00,0.9396965210664658,0,0.9396965210664658
2014-04-02 14:35:00,0.9111352406497212,0,0.9111352406497212
2014-04-02 14:40:00,0.8832569166114689,0,0.8832569166114689
2014-04-02 14:45:00,0.8020901738979399,0,0.8020901738979399
2014-04-02 14:50:00,0.8313907961384849,0,0.8313907961384849
2014-04-02 14:55:00,0.8674627673996123,0,0.8674627673996123
2014-04-02 15:00:00,0.9087087104417554,0,0.9087087104417554
2014-04-02 15:05:00,0.889138198884567,0,0.889138198884567
2014-04-02 15:10:00,0.8375722088165315,0,0.8375722088165315
2014-04-02 15:15:00,0.7731567913881512,0,0.7731567913881512
2014-04-02 15:20:00,0.8851439896166762,0,0.8851439896166762
2014-04-02 15:25:00,0.8369871983230943,0,0.8369871983230943
2014-04-02 15:30:00,0.9396471649236946,0,0.9396471649236946
2014-04-02 15:35:00,0.7771540358000406,0,0.7771540358000406
2014-04-02 15:40:00,0.9053998023357044,0,0.9053998023357044
2014-04-02 15:45:00,0.9869471355196304,0,0.9869471355196304
2014-04-02 15:50:00,0.8115574551005522,0,0.8115574551005522
2014-04-02 15:55:00,0.8795215387744033,0,0.8795215387744033
2014-04-02 16:00:00,0.7925904476339625,0,0.7925904476339625
2014-04-02 16:05:00,0.9147501081245256,0,0.9147501081245256
2014-04-02 16:10:00,0.8975668487510611,0,0.8975668487510611
2014-04-02 16:15:00,0.8648316043716786,0,0.8648316043716786
2014-04-02 16:20:00,0.8909005742961874,0,0.8909005742961874