timestamp,value,is_anomaly,anomaly_score,S(t)_reward_low_FP_rate,S(t)_reward_low_FN_rate,S(t)_standard,predicted_anomaly
2011-07-01 00:15:01,0.0163751815928,0,0.5,0.0,0.0,0.0,0
2011-07-01 01:15:01,0.0218879013537,0,0.5,0.0,0.0,0.0,0
2011-07-01 02:15:01,0.0132545757934,0,0.5,0.0,0.0,0.0,0
2011-07-01 03:15:01,0.00916544130202,0,0.5,0.0,0.0,0.0,0
2011-07-01 04:15:01,0.00861219881702,0,0.5,0.0,0.0,0.0,0
2011-07-01 05:15:01,0.00429398074707,0,0.5,0.0,0.0,0.0,0
2011-07-01 06:15:01,0.0,0,0.5,0.0,0.0,0.0,0
2011-07-01 07:15:01,0.00161277347588,0,0.5,0.0,0.0,0.0,0
2011-07-01 08:15:01,0.00198358468933,0,0.5,0.0,0.0,0.0,0
2011-07-01 09:15:01,0.0147421836489,0,0.5,0.0,0.0,0.0,0
2011-07-01 10:15:01,0.0237249761084,0,0.5,0.0,0.0,0.0,0
2011-07-01 11:15:01,0.0660168662205,0,0.5,0.0,0.0,0.0,0
2011-07-01 12:15:01,0.0747186654064,0,0.5,0.0,0.0,0.0,0
2011-07-01 13:15:01,0.0534126739315,0,0.5,0.0,0.0,0.0,0
2011-07-01 14:15:01,0.0539855309194,0,0.5,0.0,0.0,0.0,0
2011-07-01 15:15:01,0.0413688964404,0,0.5,0.0,0.0,0.0,0
2011-07-01 16:15:01,0.0286900121399,0,0.5,0.0,0.0,0.0,0
2011-07-01 17:15:01,0.0356983626962,0,0.5,0.0,0.0,0.0,0
2011-07-01 18:15:01,0.0256768712261,0,0.5,0.0,0.0,0.0,0
2011-07-01 19:15:01,0.0500642555476,0,0.5,0.0,0.0,0.0,0
2011-07-01 20:15:01,0.117516226883,0,0.5,0.0,0.0,0.0,0
2011-07-01 21:15:01,0.0311614111235,0,0.5,0.0,0.0,0.0,0
2011-07-01 22:15:01,0.246078070247,0,0.5,0.0,0.0,0.0,0
2011-07-01 23:15:01,0.521590693196,0,0.5,0.0,0.0,0.0,0
2011-07-02 00:15:01,0.483726523563,0,0.5,0.0,0.0,0.0,0
2011-07-02 01:15:01,0.134434878357,0,0.5,0.0,0.0,0.0,0
2011-07-02 02:15:01,0.0443839068546,0,0.5,0.0,0.0,0.0,0
2011-07-02 03:15:01,0.0713191991101,0,0.5,0.0,0.0,0.0,0
2011-07-02 04:15:01,0.0623433262694,0,0.5,0.0,0.0,0.0,0
2011-07-02 05:15:01,0.054604285933,0,0.5,0.0,0.0,0.0,0
2011-07-02 06:15:01,0.0541536233267,0,0.5,0.0,0.0,0.0,0
2011-07-02 07:15:01,0.0626356436131,0,0.5,0.0,0.0,0.0,0
2011-07-02 08:15:01,0.0578042536255,0,0.5,0.0,0.0,0.0,0
2011-07-02 09:15:01,0.0754817691497,0,0.5,0.0,0.0,0.0,0
2011-07-02 10:15:01,0.0970433338405,0,0.5,0.0,0.0,0.0,0
2011-07-02 11:15:01,0.127876021965,0,0.5,0.0,0.0,0.0,0
2011-07-02 12:15:01,0.290007793039,0,0.5,0.0,0.0,0.0,0
2011-07-02 13:15:01,0.21890783241,0,0.5,0.0,0.0,0.0,0
2011-07-02 14:15:01,0.196339154233,0,0.5,0.0,0.0,0.0,0
2011-07-02 15:15:01,0.148055523595,0,0.5,0.0,0.0,0.0,0
2011-07-02 16:15:01,0.114171438965,0,0.5,0.0,0.0,0.0,0
2011-07-02 17:15:01,0.0932146856399,0,0.5,0.0,0.0,0.0,0
2011-07-02 18:15:01,0.154262850083,0,0.5,0.0,0.0,0.0,0
2011-07-02 19:15:01,0.0825064877539,0,0.5,0.0,0.0,0.0,0
2011-07-02 20:15:01,0.0925921231836,0,0.5,0.0,0.0,0.0,0
2011-07-02 21:15:01,0.0860241629006,0,0.5,0.0,0.0,0.0,0
2011-07-02 22:15:01,0.0744266340247,0,0.5,0.0,0.0,0.0,0
2011-07-02 23:15:01,0.218902872138,0,0.5,0.0,0.0,0.0,0
2011-07-03 00:15:01,0.206373153168,0,0.5,0.0,0.0,0.0,0
2011-07-03 01:15:01,0.116901104498,0,0.5,0.0,0.0,0.0,0
2011-07-03 02:15:01,0.0986625756818,0,0.5,0.0,0.0,0.0,0
2011-07-03 03:15:01,0.0313642439381,0,0.5,0.0,0.0,0.0,0
2011-07-03 04:15:01,0.0720220559369,0,0.5,0.0,0.0,0.0,0
2011-07-03 05:15:01,0.0694406479349,0,0.5,0.0,0.0,0.0,0
2011-07-03 06:15:01,0.0726028288026,0,0.5,0.0,0.0,0.0,0
2011-07-03 07:15:01,0.0813939617909,0,0.5,0.0,0.0,0.0,0
2011-07-03 08:15:01,0.0758349279683,0,0.5,0.0,0.0,0.0,0
2011-07-03 09:15:01,0.0843756763208,0,0.5,0.0,0.0,0.0,0
2011-07-03 10:15:01,0.124081129516,0,0.5,0.0,0.0,0.0,0
2011-07-03 11:15:01,0.263009472566,0,0.5,0.0,0.0,0.0,0
2011-07-03 12:15:01,0.338912024817,0,0.5,0.0,0.0,0.0,0
2011-07-03 13:15:01,0.314683185167,0,0.5,0.0,0.0,0.0,0
2011-07-03 14:15:01,0.206386019283,0,0.5,0.0,0.0,0.0,0
2011-07-03 15:15:01,0.153839612982,0,0.5,0.0,0.0,0.0,0
2011-07-03 16:15:01,0.131933390746,0,0.5,0.0,0.0,0.0,0
2011-07-03 17:15:01,0.123370836715,0,0.5,0.0,0.0,0.0,0
2011-07-03 18:15:01,0.0993712258144,0,0.5,0.0,0.0,0.0,0
2011-07-03 19:15:01,0.0954190624232,0,0.5,0.0,0.0,0.0,0
2011-07-03 20:15:01,0.0979480731602,0,0.5,0.0,0.0,0.0,0
2011-07-03 21:15:01,0.108603437886,0,0.5,0.0,0.0,0.0,0
2011-07-03 22:15:01,0.130768376231,0,0.5,0.0,0.0,0.0,0
2011-07-03 23:15:01,0.275403452621,0,0.5,0.0,0.0,0.0,0
2011-07-04 00:15:01,0.21478591689,0,0.5,0.0,0.0,0.0,0
2011-07-04 01:15:01,0.120353123145,0,0.5,0.0,0.0,0.0,0
2011-07-04 02:15:01,0.0459723132515,0,0.5,0.0,0.0,0.0,0
2011-07-04 03:15:01,0.076305110287,0,0.5,0.0,0.0,0.0,0
2011-07-04 04:15:01,0.0795741235766,0,0.5,0.0,0.0,0.0,0
2011-07-04 05:15:01,0.0618514157391,0,0.5,0.0,0.0,0.0,0
2011-07-04 06:15:01,0.0584810243561,0,0.5,0.0,0.0,0.0,0
2011-07-04 07:15:01,0.0682807306382,0,0.5,0.0,0.0,0.0,0
2011-07-04 08:15:01,0.0889309400175,0,0.5,0.0,0.0,0.0,0
2011-07-04 09:15:01,0.070287006769,0,0.5,0.0,0.0,0.0,0
2011-07-04 10:15:01,0.111738555145,0,0.5,0.0,0.0,0.0,0
2011-07-04 11:15:01,0.254338503585,0,0.5,0.0,0.0,0.0,0
2011-07-04 12:15:01,0.275246613246,0,0.5,0.0,0.0,0.0,0
2011-07-04 13:15:01,0.319872432763,0,0.5,0.0,0.0,0.0,0
2011-07-04 14:15:01,0.24489974685,0,0.5,0.0,0.0,0.0,0
2011-07-04 15:15:01,0.140386576017,0,0.5,0.0,0.0,0.0,0
2011-07-04 16:15:01,0.0691771633471,0,0.5,0.0,0.0,0.0,0
2011-07-04 17:15:01,0.0544653468871,0,0.5,0.0,0.0,0.0,0
2011-07-04 18:15:01,0.0483263389432,0,0.5,0.0,0.0,0.0,0
2011-07-04 19:15:01,0.0443100116362,0,0.5,0.0,0.0,0.0,0
2011-07-04 20:15:01,0.0529752245116,0,0.5,0.0,0.0,0.0,0
2011-07-04 21:15:01,0.0505204013303,0,0.5,0.0,0.0,0.0,0
2011-07-04 22:15:01,0.0686166205186,0,0.5,0.0,0.0,0.0,0
2011-07-04 23:15:01,0.142459836389,0,0.5,0.0,0.0,0.0,0
2011-07-05 00:15:01,0.149195784205,0,0.5,0.0,0.0,0.0,0
2011-07-05 01:15:01,0.0576669214117,0,0.5,0.0,0.0,0.0,0
2011-07-05 02:15:01,0.0435718470307,0,0.5,0.0,0.0,0.0,0
2011-07-05 03:15:01,0.0229203662722,0,0.5,0.0,0.0,0.0,0
2011-07-05 04:15:01,0.0278690104458,0,0.5,0.0,0.0,0.0,0
2011-07-05 05:15:01,0.0264448310166,0,0.5,0.0,0.0,0.0,0
2011-07-05 06:15:01,0.0203764585441,0,0.5,0.0,0.0,0.0,0
2011-07-05 07:15:01,0.0275217118545,0,0.5,0.0,0.0,0.0,0
2011-07-05 08:15:01,0.0290016228994,0,0.5,0.0,0.0,0.0,0
2011-07-05 09:15:01,0.0226795852036,0,0.5,0.0,0.0,0.0,0
2011-07-05 10:15:01,0.0830179805807,0,0.5,0.0,0.0,0.0,0
2011-07-05 11:15:01,0.0901353111762,0,0.5,0.0,0.0,0.0,0
2011-07-05 12:15:01,0.146209296304,0,0.5,0.0,0.0,0.0,0
2011-07-05 13:15:01,0.13094200468,0,0.5,0.0,0.0,0.0,0
2011-07-05 14:15:01,0.122099224002,0,0.5,0.0,0.0,0.0,0
2011-07-05 15:15:01,0.0747899373454,0,0.5,0.0,0.0,0.0,0
2011-07-05 16:15:01,0.0564048885329,0,0.5,0.0,0.0,0.0,0
2011-07-05 17:15:01,0.050618761603,0,0.5,0.0,0.0,0.0,0
2011-07-05 18:15:01,0.0637805574405,0,0.5,0.0,0.0,0.0,0
2011-07-05 19:15:01,0.0572115618749,0,0.5,0.0,0.0,0.0,0
2011-07-05 20:15:01,0.0517493529999,0,0.5,0.0,0.0,0.0,0
2011-07-05 21:15:01,0.039633393613,0,0.5,0.0,0.0,0.0,0
2011-07-05 22:15:01,0.0501928156179,0,0.5,0.0,0.0,0.0,0
2011-07-05 23:15:01,0.102298246559,0,0.5,0.0,0.0,0.0,0
2011-07-06 00:15:01,0.129237640957,0,0.5,0.0,0.0,0.0,0
2011-07-06 01:15:01,0.0427688682284,0,0.5,0.0,0.0,0.0,0
2011-07-06 02:15:01,0.0187395629616,0,0.5,0.0,0.0,0.0,0
2011-07-06 03:15:01,0.0206879801928,0,0.5,0.0,0.0,0.0,0
2011-07-06 04:15:01,0.0209719906827,0,0.5,0.0,0.0,0.0,0
2011-07-06 05:15:01,0.0166961408552,0,0.5,0.0,0.0,0.0,0
2011-07-06 06:15:01,0.0191859310031,0,0.5,0.0,0.0,0.0,0
2011-07-06 07:15:01,0.0191885848196,0,0.5,0.0,0.0,0.0,0
2011-07-06 08:15:01,0.019108361242,0,0.5,0.0,0.0,0.0,0
2011-07-06 09:15:01,0.0427764716098,0,0.5,0.0,0.0,0.0,0
2011-07-06 10:15:01,0.0390927260258,0,0.5,0.0,0.0,0.0,0
2011-07-06 11:15:01,0.104340879943,0,0.5,0.0,0.0,0.0,0
2011-07-06 12:15:01,0.138634768811,0,0.5,0.0,0.0,0.0,0
2011-07-06 13:15:01,0.136551999072,0,0.5,0.0,0.0,0.0,0
2011-07-06 14:15:01,0.0784864524011,0,0.5,0.0,0.0,0.0,0
2011-07-06 15:15:01,0.0728317599423,0,0.5,0.0,0.0,0.0,0
2011-07-06 16:15:01,0.0564969385242,0,0.5,0.0,0.0,0.0,0
2011-07-06 17:15:01,0.0519003534397,0,0.5,0.0,0.0,0.0,0
2011-07-06 18:15:01,0.0742622008758,0,0.5,0.0,0.0,0.0,0
2011-07-06 19:15:01,0.0701905736343,0,0.5,0.0,0.0,0.0,0
2011-07-06 20:15:01,0.0257055031907,0,0.5,0.0,0.0,0.0,0
2011-07-06 21:15:01,0.0712144375519,0,0.5,0.0,0.0,0.0,0
2011-07-06 22:15:01,0.0480395683357,0,0.5,0.0,0.0,0.0,0
2011-07-06 23:15:01,0.0527322299752,0,0.5,0.0,0.0,0.0,0
2011-07-07 00:15:01,0.0337215943169,0,0.5,0.0,0.0,0.0,0
2011-07-07 01:15:01,0.0410235163401,0,0.5,0.0,0.0,0.0,0
2011-07-07 02:15:01,0.0373039605172,0,0.5,0.0,0.0,0.0,0
2011-07-07 05:15:01,0.0316715099592,0,0.5,0.0,0.0,0.0,0
2011-07-07 06:15:01,0.0100861789427,0,0.5,0.0,0.0,0.0,0
2011-07-07 07:15:01,0.0501024542966,0,0.5,0.0,0.0,0.0,0
2011-07-07 08:15:01,0.0246127816941,0,0.5,0.0,0.0,0.0,0
2011-07-07 09:15:01,0.0565425785432,0,0.5,0.0,0.0,0.0,0
2011-07-07 10:15:01,0.0575282727121,0,0.5,0.0,0.0,0.0,0
2011-07-07 11:15:01,0.0999497823726,0,0.5,0.0,0.0,0.0,0
2011-07-07 12:15:01,0.180785774514,0,0.5,0.0,0.0,0.0,0
2011-07-07 13:15:01,0.159724588088,0,0.5,0.0,0.0,0.0,0
2011-07-07 14:15:01,0.134286497813,0,0.5,0.0,0.0,0.0,0
2011-07-07 15:15:01,0.114532377369,0,0.5,0.0,0.0,0.0,0
2011-07-07 16:15:01,0.0574967480972,0,0.5,0.0,0.0,0.0,0
2011-07-07 17:15:01,0.0855719071451,0,0.5,0.0,0.0,0.0,0
2011-07-07 18:15:01,0.0857571728744,0,0.5,0.0,0.0,0.0,0
2011-07-07 19:15:01,0.173335339002,0,0.5,0.0,0.0,0.0,0
2011-07-07 20:15:01,0.134115357547,0,0.5,0.0,0.0,0.0,0
2011-07-07 21:15:01,0.137229770742,0,0.5,0.0,0.0,0.0,0
2011-07-07 22:15:01,0.107390443237,0,0.5,0.0,0.0,0.0,0
2011-07-07 23:15:01,0.0448694226455,0,0.5,0.0,0.0,0.0,0
2011-07-08 00:15:01,0.0337758483337,0,0.5,0.0,0.0,0.0,0
2011-07-08 01:15:01,0.101835287989,0,0.5,0.0,0.0,0.0,0
2011-07-08 02:15:01,0.0623136408952,0,0.5,0.0,0.0,0.0,0
2011-07-08 06:15:01,0.0745529995139,0,0.5,0.0,0.0,0.0,0
2011-07-08 09:15:01,0.0696749987025,0,0.5,0.0,0.0,0.0,0
2011-07-08 10:15:01,0.0521541236717,0,0.5,0.0,0.0,0.0,0
2011-07-08 14:15:01,0.178331066055,0,0.5,0.0,0.0,0.0,0
2011-07-08 16:15:01,0.438860040703,0,0.5,0.0,0.0,0.0,0
2011-07-08 17:15:01,0.199655381198,0,0.5,0.0,0.0,0.0,0
2011-07-08 18:15:01,0.073442998236,0,0.5,0.0,0.0,0.0,0
2011-07-08 19:15:01,0.125481496867,0,0.5,0.0,0.0,0.0,0
2011-07-08 20:15:01,0.166122404561,0,0.5,0.0,0.0,0.0,0
2011-07-08 21:15:01,0.140242409373,0,0.5,0.0,0.0,0.0,0
2011-07-08 22:15:01,0.149748257783,0,0.5,0.0,0.0,0.0,0
2011-07-08 23:15:01,0.12927008574,0,0.5,0.0,0.0,0.0,0
2011-07-09 09:15:01,0.0776682954644,0,0.5,0.0,0.0,0.0,0
2011-07-09 15:15:01,0.0680254695317,0,0.5,0.0,0.0,0.0,0
2011-07-09 17:15:01,0.0792067038384,0,0.5,0.0,0.0,0.0,0
2011-07-09 18:15:01,0.151818285997,0,0.5,0.0,0.0,0.0,0
2011-07-09 19:15:01,0.121786760466,0,0.5,0.0,0.0,0.0,0
2011-07-09 20:15:01,0.105367698468,0,0.5,0.0,0.0,0.0,0
2011-07-09 21:15:01,0.0968481012939,0,0.5,0.0,0.0,0.0,0
2011-07-09 22:15:01,0.137304289345,0,0.5,0.0,0.0,0.0,0
2011-07-09 23:15:01,0.163186025522,0,0.5,0.0,0.0,0.0,0
2011-07-10 00:15:01,0.142008123405,0,0.5,0.0,0.0,0.0,0
2011-07-10 01:15:01,0.11843403297,0,0.5,0.0,0.0,0.0,0
2011-07-10 02:15:01,0.102701013609,0,0.5,0.0,0.0,0.0,0
2011-07-10 03:15:01,0.0466933269764,0,0.5,0.0,0.0,0.0,0
2011-07-10 04:15:01,0.0713971143993,0,0.5,0.0,0.0,0.0,0
2011-07-10 05:15:01,0.0658556094267,0,0.5,0.0,0.0,0.0,0
2011-07-10 06:15:01,0.0701306715042,0,0.5,0.0,0.0,0.0,0
2011-07-10 07:15:01,0.0511160704515,0,0.5,0.0,0.0,0.0,0
2011-07-10 08:15:01,0.0782658603643,0,0.5,0.0,0.0,0.0,0
2011-07-10 09:15:01,0.143876321511,0,0.5,0.0,0.0,0.0,0
2011-07-10 10:15:01,0.0949694028242,0,0.5,0.0,0.0,0.0,0
2011-07-10 11:15:01,0.160225954741,0,0.5,0.0,0.0,0.0,0
2011-07-10 12:15:01,0.307161290485,0,0.5,0.0,0.0,0.0,0
2011-07-10 13:15:01,0.304736547681,0,0.5,0.0,0.0,0.0,0
2011-07-10 14:15:01,0.248415498862,0,0.5,0.0,0.0,0.0,0
2011-07-10 15:15:01,0.202511888969,0,0.5,0.0,0.0,0.0,0
2011-07-10 16:15:01,0.176697080881,0,0.5,0.0,0.0,0.0,0
2011-07-10 17:15:01,0.189186880171,0,0.5,0.0,0.0,0.0,0
2011-07-10 18:15:01,0.136962614188,0,0.5,0.0,0.0,0.0,0
2011-07-10 19:15:01,0.118195756806,0,0.5,0.0,0.0,0.0,0
2011-07-10 20:15:01,0.118070201455,0,0.5,0.0,0.0,0.0,0
2011-07-10 21:15:01,0.104864888958,0,0.5,0.0,0.0,0.0,0
2011-07-10 22:15:01,0.129632880645,0,0.5,0.0,0.0,0.0,0
2011-07-10 23:15:01,0.104735513396,0,0.5,0.0,0.0,0.0,0
2011-07-11 00:15:01,0.0825492581585,0,0.5,0.0,0.0,0.0,0
2011-07-11 01:15:01,0.102287953589,0,0.5,0.0,0.0,0.0,0
2011-07-11 02:15:01,0.0644936778823,0,0.5,0.0,0.0,0.0,0
2011-07-11 03:15:01,0.0788174763572,0,0.5,0.0,0.0,0.0,0
2011-07-11 04:15:01,0.0713501432528,0,0.5,0.0,0.0,0.0,0
2011-07-11 05:15:01,0.0729324175006,0,0.5,0.0,0.0,0.0,0
2011-07-11 06:15:01,0.0613555261884,0,0.5,0.0,0.0,0.0,0
2011-07-11 07:15:01,0.067820070226,0,0.5,0.0,0.0,0.0,0
2011-07-11 08:15:01,0.0619503536491,0,0.5,0.0,0.0,0.0,0
2011-07-11 09:15:01,0.0517511184386,0,0.5,0.0,0.0,0.0,0
2011-07-11 10:15:01,0.127223080132,0,0.5,0.0,0.0,0.0,0
2011-07-11 11:15:01,0.332066988703,0,0.5,0.0,0.0,0.0,0
2011-07-11 12:15:01,0.215099435872,0,0.5,0.0,0.0,0.0,0
2011-07-11 13:15:01,0.229730265714,0,0.5,0.0,0.0,0.0,0
2011-07-11 14:15:01,0.206903448523,0,0.5,0.0,0.0,0.0,0
2011-07-11 15:15:01,0.151964854522,0,0.5,0.0,0.0,0.0,0
2011-07-11 16:15:01,0.130788890284,0,0.5,0.0,0.0,0.0,0
2011-07-11 17:15:01,0.100034257058,0,0.5,0.0,0.0,0.0,0
2011-07-11 18:15:01,0.0523232762458,0,0.5,0.0,0.0,0.0,0
2011-07-11 19:15:01,0.0391278796676,0,0.5,0.0,0.0,0.0,0
2011-07-11 20:15:01,0.0360764419453,0,0.5,0.0,0.0,0.0,0
2011-07-11 21:15:01,0.0421431905492,0,0.5,0.0,0.0,0.0,0
2011-07-11 22:15:01,0.0418159061312,0,0.5,0.0,0.0,0.0,0
2011-07-11 23:15:01,0.0491345242966,0,0.5,0.0,0.0,0.0,0
2011-07-12 00:15:01,0.0220678464357,0,0.5,0.0,0.0,0.0,0
2011-07-12 01:15:01,0.0478710651796,0,0.5,0.0,0.0,0.0,0
2011-07-12 02:15:01,0.0493947635583,0,0.5,0.0,0.0,0.0,0
2011-07-12 03:15:01,0.0465560944114,0,0.5,0.0,0.0,0.0,0
2011-07-12 04:15:01,0.0359340745202,0,0.5,0.0,0.0,0.0,0
2011-07-12 05:15:01,0.0410172979194,0,0.5,0.0,0.0,0.0,0
2011-07-12 06:15:01,0.0411437429372,0,0.5,0.0,0.0,0.0,0
2011-07-12 07:15:01,0.0430170569493,0,0.5,0.0,0.0,0.0,0
2011-07-12 08:15:01,0.0605164246411,0,0.5,0.0,0.0,0.0,0
2011-07-12 09:15:01,0.0681399157753,0,0.5,0.0,0.0,0.0,0
2011-07-12 10:15:01,0.0674990545728,0,0.5,0.0,0.0,0.0,0
2011-07-12 11:15:01,0.0738029576371,0,0.5,0.0,0.0,0.0,0
2011-07-12 12:15:01,0.130369519916,0,0.5,0.0,0.0,0.0,0
2011-07-12 13:15:01,0.16392377457,0,0.5,0.0,0.0,0.0,0
2011-07-12 14:15:01,0.133950936299,0,0.5,0.0,0.0,0.0,0
2011-07-12 15:15:01,0.13057794167,0,0.5,0.0,0.0,0.0,0
2011-07-12 16:15:01,0.0692646283221,0,0.5,0.0,0.0,0.0,0
2011-07-12 17:15:01,0.0845083118919,0,0.5,0.0,0.0,0.0,0
2011-07-12 18:15:01,0.0856365870729,0,0.5,0.0,0.0,0.0,0
2011-07-12 19:15:01,0.0749519182957,0,0.5,0.0,0.0,0.0,0
2011-07-12 20:15:01,0.0760804273914,0,0.5,0.0,0.0,0.0,0
2011-07-12 21:15:01,0.0853206308447,0,0.5,0.0,0.0,0.0,0
2011-07-12 22:15:01,0.0738775378372,0,0.5,0.0,0.0,0.0,0
2011-07-12 23:15:01,0.0747894063592,0,0.5,0.0,0.0,0.0,0
2011-07-13 00:15:01,0.0494611976626,0,0.5,0.0,0.0,0.0,0
2011-07-13 01:15:01,0.0693127395744,0,0.5,0.0,0.0,0.0,0
2011-07-13 02:15:01,0.0457300774813,0,0.5,0.0,0.0,0.0,0
2011-07-13 03:15:01,0.0407062972882,0,0.5,0.0,0.0,0.0,0
2011-07-13 04:15:01,0.0403725364788,0,0.5,0.0,0.0,0.0,0
2011-07-13 05:15:01,0.0384626899455,0,0.5,0.0,0.0,0.0,0
2011-07-13 06:15:01,0.0370903014875,0,0.5,0.0,0.0,0.0,0
2011-07-13 07:15:01,0.0453827518027,0,0.5,0.0,0.0,0.0,0
2011-07-13 08:15:01,0.0648004869549,0,0.5,0.0,0.0,0.0,0
2011-07-13 09:15:01,0.0902728939934,0,0.5,0.0,0.0,0.0,0
2011-07-13 10:15:01,0.0718456891981,0,0.5,0.0,0.0,0.0,0
2011-07-13 11:15:01,0.118726318385,0,0.5,0.0,0.0,0.0,0
2011-07-13 12:15:01,0.146497452597,0,0.5,0.0,0.0,0.0,0
2011-07-13 13:15:01,0.182508006553,0,0.5,0.0,0.0,0.0,0
2011-07-13 14:15:01,0.0845049294541,0,0.5,0.0,0.0,0.0,0
2011-07-13 15:15:01,0.104428164502,0,0.5,0.0,0.0,0.0,0
2011-07-13 16:15:01,0.0962585302947,0,0.5,0.0,0.0,0.0,0
2011-07-13 17:15:01,0.0890908826429,0,0.5,0.0,0.0,0.0,0
2011-07-13 18:15:01,0.0837274760993,0,0.5,0.0,0.0,0.0,0
2011-07-13 19:15:01,0.0800256729341,0,0.5,0.0,0.0,0.0,0
2011-07-13 20:15:01,0.0714504191184,0,0.5,0.0,0.0,0.0,0
2011-07-13 21:15:01,0.0790398635964,0,0.5,0.0,0.0,0.0,0
2011-07-13 22:15:01,0.0829386838722,0,0.5,0.0,0.0,0.0,0
2011-07-13 23:15:01,0.0903947309195,0,0.5,0.0,0.0,0.0,0
2011-07-14 00:15:01,0.0538395599626,0,0.5,0.0,0.0,0.0,0
2011-07-14 01:15:01,0.0574634559999,0,0.5,0.0,0.0,0.0,0
2011-07-14 02:15:01,0.0332211261908,0,0.5,0.0,0.0,0.0,0
2011-07-14 03:15:01,0.0218924738025,0,0.5,0.0,0.0,0.0,0
2011-07-14 04:15:01,0.0156995037051,0,0.5,0.0,0.0,0.0,0
2011-07-14 05:15:01,0.0136008997034,0,0.5,0.0,0.0,0.0,0
2011-07-14 06:15:01,0.0141896478591,0,0.5,0.0,0.0,0.0,0
2011-07-14 07:15:01,0.0182002841827,0,0.5,0.0,0.0,0.0,0
2011-07-14 08:15:01,0.0267693436306,0,0.5,0.0,0.0,0.0,0
2011-07-14 09:15:01,0.0451901255905,0,0.5,0.0,0.0,0.0,0
2011-07-14 10:15:01,0.0513430677362,0,0.5,0.0,0.0,0.0,0
2011-07-14 11:15:01,0.0876414414412,0,0.5,0.0,0.0,0.0,0
2011-07-14 12:15:01,0.148948883448,0,0.5,0.0,0.0,0.0,0
2011-07-14 13:15:01,0.135510138687,0,0.5,0.0,0.0,0.0,0
2011-07-14 14:15:01,0.117204106202,0,0.5,0.0,0.0,0.0,0
2011-07-14 15:15:01,0.0845557654765,0,0.5,0.0,0.0,0.0,0
2011-07-14 16:15:01,0.0594411424449,0,0.5,0.0,0.0,0.0,0
2011-07-14 17:15:01,0.0579933654659,0,0.5,0.0,0.0,0.0,0
2011-07-14 18:15:01,0.0538685130778,0,0.5,0.0,0.0,0.0,0
2011-07-14 19:15:01,0.0484913967658,0,0.5,0.0,0.0,0.0,0
2011-07-14 20:15:01,0.0450633348074,0,0.5,0.0,0.0,0.0,0
2011-07-14 21:15:01,0.0507350976924,0,0.5,0.0,0.0,0.0,0
2011-07-14 22:15:01,0.043906640938,0,0.5,0.0,0.0,0.0,0
2011-07-14 23:15:01,0.0508853788598,0,0.5,0.0,0.0,0.0,0
2011-07-15 00:15:01,0.0289904587769,0,0.5,0.0,0.0,0.0,0
2011-07-15 01:15:01,0.0566043969935,0,0.5,0.0,0.0,0.0,0
2011-07-15 02:15:01,0.0346588859387,0,0.5,0.0,0.0,0.0,0
2011-07-15 03:15:01,0.0280468171928,0,0.5,0.0,0.0,0.0,0
2011-07-15 04:15:01,0.0173062094227,0,0.5,0.0,0.0,0.0,0
2011-07-15 05:15:01,0.0129301126137,0,0.5,0.0,0.0,0.0,0
2011-07-15 06:15:01,0.0200197591985,0,0.5,0.0,0.0,0.0,0
2011-07-15 07:15:01,0.0191352186287,0,0.5,0.0,0.0,0.0,0
2011-07-15 08:15:01,0.032840297767,0,0.5,0.0,0.0,0.0,0
2011-07-15 09:15:01,0.0500007612486,0,0.5,0.0,0.0,0.0,0
2011-07-15 10:15:01,0.0596258859413,0,0.5,0.0,0.0,0.0,0
2011-07-15 11:15:01,0.0690411700425,0,0.5,0.0,0.0,0.0,0
2011-07-15 12:15:01,0.117229427295,0,0.5,0.0,0.0,0.0,0
2011-07-15 13:15:01,0.131168349996,0,0.5,0.0,0.0,0.0,0
2011-07-15 14:15:01,0.0667617421214,0,0.5,0.0,0.0,0.0,0
2011-07-15 15:15:01,0.072805501281,0,0.5,0.0,0.0,0.0,0
2011-07-15 16:15:01,0.0619201437649,0,0.5,0.0,0.0,0.0,0
2011-07-15 17:15:01,0.0604179920239,0,0.5,0.0,0.0,0.0,0
2011-07-15 18:15:01,0.0504910568555,0,0.5,0.0,0.0,0.0,0
2011-07-15 19:15:01,0.0468358026666,0,0.5,0.0,0.0,0.0,0
2011-07-15 20:15:01,0.0398560027846,0,0.5,0.0,0.0,0.0,0
2011-07-15 21:15:01,0.0401066852466,0,0.5,0.0,0.0,0.0,0
2011-07-15 22:15:01,0.0298578014254,0,0.5,0.0,0.0,0.0,0
2011-07-15 23:15:01,0.0245435814083,0,0.5,0.0,0.0,0.0,0
2011-07-16 00:15:01,0.0487746530152,0,0.5,0.0,0.0,0.0,0
2011-07-16 01:15:01,0.0656514799842,0,0.5,0.0,0.0,0.0,0
2011-07-16 02:15:01,0.0643260570541,0,0.5,0.0,0.0,0.0,0
2011-07-16 03:15:01,0.0423815603341,0,0.5,0.0,0.0,0.0,0
2011-07-16 04:15:01,0.0376911524523,0,0.5,0.0,0.0,0.0,0
2011-07-16 05:15:01,0.0209824773805,0,0.5,0.0,0.0,0.0,0
2011-07-16 06:15:01,0.0167938660993,0,0.5,0.0,0.0,0.0,0
2011-07-16 07:15:01,0.0194742467806,0,0.5,0.0,0.0,0.0,0
2011-07-16 08:15:01,0.0404466823014,0,0.5,0.0,0.0,0.0,0
2011-07-16 09:15:01,0.0499630786161,0,0.5,0.0,0.0,0.0,0
2011-07-16 10:15:01,0.0868563233237,0,0.5,0.0,0.0,0.0,0
2011-07-16 11:15:01,0.0942459979595,0,0.5,0.0,0.0,0.0,0
2011-07-16 12:15:01,0.100662009264,0,0.5,0.0,0.0,0.0,0
2011-07-16 13:15:01,0.159039210562,0,0.5,0.0,0.0,0.0,0
2011-07-16 14:15:01,0.0719468500491,0,0.5,0.0,0.0,0.0,0
2011-07-16 15:15:01,0.0858688718421,0,0.5,0.0,0.0,0.0,0
2011-07-16 16:15:01,0.0693017046422,0,0.5,0.0,0.0,0.0,0
2011-07-16 17:15:01,0.0539497614141,0,0.5,0.0,0.0,0.0,0
2011-07-16 18:15:01,0.049535192668,0,0.5,0.0,0.0,0.0,0
2011-07-16 19:15:01,0.0563355107977,0,0.5,0.0,0.0,0.0,0
2011-07-16 22:15:01,0.0452521565599,0,0.5,0.0,0.0,0.0,0
2011-07-16 23:15:01,0.0458604657037,0,0.5,0.0,0.0,0.0,0
2011-07-17 00:15:01,0.0446621745366,0,0.5,0.0,0.0,0.0,0
2011-07-17 01:15:01,0.0566799874519,0,0.5,0.0,0.0,0.0,0
2011-07-17 02:15:01,0.056685575826,0,0.5,0.0,0.0,0.0,0
2011-07-17 03:15:01,0.0439157947909,0,0.5,0.0,0.0,0.0,0
2011-07-17 04:15:01,0.0389850336023,0,0.5,0.0,0.0,0.0,0
2011-07-17 05:15:01,0.0246069869964,0,0.5,0.0,0.0,0.0,0
2011-07-17 06:15:01,0.0197000432511,0,0.5,0.0,0.0,0.0,0
2011-07-17 07:15:01,0.024866911741,0,0.5,0.0,0.0,0.0,0
2011-07-17 08:15:01,0.0321045824789,0,0.5,0.0,0.0,0.0,0
2011-07-17 09:15:01,0.0449884635806,0,0.5,0.0,0.0,0.0,0
2011-07-17 10:15:01,0.0832946160343,0,0.5,0.0,0.0,0.0,0
2011-07-17 11:15:01,0.0834510820167,0,0.5,0.0,0.0,0.0,0
2011-07-17 12:15:01,0.117539976366,0,0.5,0.0,0.0,0.0,0
2011-07-17 13:15:01,0.171498060983,0,0.5,0.0,0.0,0.0,0
2011-07-17 14:15:01,0.088663607842,0,0.5,0.0,0.0,0.0,0
2011-07-17 15:15:01,0.100774866423,0,0.5,0.0,0.0,0.0,0
2011-07-17 16:15:01,0.0657078399092,0,0.5,0.0,0.0,0.0,0
2011-07-17 17:15:01,0.0548049356762,0,0.5,0.0,0.0,0.0,0
2011-07-17 18:15:01,0.0434023260588,0,0.5,0.0,0.0,0.0,0
2011-07-17 19:15:01,0.0449852981874,0,0.5,0.0,0.0,0.0,0
2011-07-17 20:15:01,0.0440658977148,0,0.5,0.0,0.0,0.0,0
2011-07-17 21:15:01,0.0420538320605,0,0.5,0.0,0.0,0.0,0
2011-07-17 22:15:01,0.041683668381,0,0.5,0.0,0.0,0.0,0
2011-07-17 23:15:01,0.0413265410802,0,0.5,0.0,0.0,0.0,0
2011-07-18 00:15:01,0.0370122445529,0,0.5,0.0,0.0,0.0,0
2011-07-18 01:15:01,0.0474361512046,0,0.5,0.0,0.0,0.0,0
2011-07-18 02:15:01,0.0389951087342,0,0.5,0.0,0.0,0.0,0
2011-07-18 03:15:01,0.0290696232292,0,0.5,0.0,0.0,0.0,0
2011-07-18 04:15:01,0.0206879432924,0,0.5,0.0,0.0,0.0,0
2011-07-18 05:15:01,0.0132110595128,0,0.5,0.0,0.0,0.0,0
2011-07-18 06:15:01,0.0120732151773,0,0.5,0.0,0.0,0.0,0
2011-07-18 07:15:01,0.0214426007373,0,0.5,0.0,0.0,0.0,0
2011-07-18 08:15:01,0.0251386024273,0,0.940921753963,0.0,0.0,0.0,0
2011-07-18 09:15:01,0.0499487816966,0,0.934831897467,0.0,0.0,0.0,0
2011-07-18 10:15:01,0.0577386848371,0,0.918207055431,0.0,0.0,0.0,0
2011-07-18 11:15:01,0.0777934541665,0,0.888358078582,0.0,0.0,0.0,0
2011-07-18 12:15:01,0.134129580802,0,0.748117666889,0.0,0.0,0.0,0
2011-07-18 13:15:01,0.101531684776,0,0.598789128249,0.0,0.0,0.0,0
2011-07-18 14:15:01,0.100191054624,0,0.582698470013,0.0,0.0,0.0,0
2011-07-18 15:15:01,0.0781756275061,0,0.720348931726,0.0,0.0,0.0,0
2011-07-18 16:15:01,0.0779371268307,0,0.83251401017,0.0,0.0,0.0,0
2011-07-18 17:15:01,0.0638136147099,0,0.886626121583,0.0,0.0,0.0,0
2011-07-18 18:15:01,0.0544793564979,0,0.915926071707,0.0,0.0,0.0,0
2011-07-18 19:15:01,0.0513062987468,0,0.917129183859,0.0,0.0,0.0,0
2011-07-18 20:15:01,0.0468048371883,0,0.908340559139,0.0,0.0,0.0,0
2011-07-18 21:15:01,0.0375470839149,0,0.863954088542,0.0,0.0,0.0,0
2011-07-18 22:15:01,0.0376740051037,0,0.705886763775,0.0,0.0,0.0,0
2011-07-18 23:15:01,0.038696316024,0,0.570894284633,0.0,0.0,0.0,0
2011-07-19 00:15:01,0.023823297252,0,0.603427653274,0.0,0.0,0.0,0
2011-07-19 01:15:01,0.0571846481409,0,0.649293152888,0.0,0.0,0.0,0
2011-07-19 02:15:01,0.0429728865869,0,0.720815490444,0.0,0.0,0.0,0
2011-07-19 03:15:01,0.0256568160767,0,0.789748753382,0.0,0.0,0.0,0
2011-07-19 04:15:01,0.0194940899765,0,0.84315851387,0.0,0.0,0.0,0
2011-07-19 05:15:01,0.00644890836722,0,0.897331410354,0.0,0.0,0.0,0
2011-07-19 06:15:01,0.00343926908878,0,0.935347259605,0.0,0.0,0.0,0
2011-07-19 07:15:01,0.0174339666467,0,0.948761495855,0.0,0.0,0.0,0
2011-07-19 08:15:01,0.0245212296246,0,0.956264756483,0.0,0.0,0.0,0
2011-07-19 09:15:01,0.0460672292081,0,0.95217727502,0.0,0.0,0.0,0
2011-07-19 10:15:01,0.0770678518088,0,0.912919388332,0.0,0.0,0.0,0
2011-07-19 11:15:01,0.0862577072793,0,0.883195070867,0.0,0.0,0.0,0
2011-07-19 12:15:01,0.120080685848,0,0.772153718806,0.0,0.0,0.0,0
2011-07-19 13:15:01,0.131852966284,0,0.552853739658,0.0,0.0,0.0,0
2011-07-19 14:15:01,0.104752564805,0,0.640327099165,0.0,0.0,0.0,0
2011-07-19 15:15:01,0.0798138052958,0,0.783150628979,0.0,0.0,0.0,0
2011-07-19 16:15:01,0.0588176800199,0,0.864896189998,0.0,0.0,0.0,0
2011-07-19 17:15:01,0.0364543606196,0,0.887318758305,0.0,0.0,0.0,0
2011-07-19 18:15:01,0.0422369307548,0,0.90568902062,0.0,0.0,0.0,0
2011-07-19 19:15:01,0.0358893876089,0,0.895425461786,0.0,0.0,0.0,0
2011-07-19 20:15:01,0.0323535961214,0,0.840803985307,0.0,0.0,0.0,0
2011-07-19 21:15:01,0.0224389810476,0,0.735434838004,0.0,0.0,0.0,0
2011-07-19 22:15:01,0.0300762392754,0,0.543687117937,0.0,0.0,0.0,0
2011-07-19 23:15:01,0.0265157986401,0,0.690898071534,0.0,0.0,0.0,0
2011-07-20 00:15:01,0.0210416074316,0,0.836869130445,0.0,0.0,0.0,0
2011-07-20 01:15:01,0.0471032120602,0,0.879102869891,0.0,0.0,0.0,0
2011-07-20 02:15:01,0.0364880347846,0,0.903101054643,0.0,0.0,0.0,0
2011-07-20 03:15:01,0.0275365998307,0,0.911637709693,0.0,0.0,0.0,0
2011-07-20 04:15:01,0.0166938084611,0,0.932981773502,0.0,0.0,0.0,0
2011-07-20 05:15:01,0.00738141630753,0,0.951839055279,0.0,0.0,0.0,0
2011-07-20 06:15:01,0.010246927356,0,0.963319427885,0.0,0.0,0.0,0
2011-07-20 07:15:01,0.0229008124466,0,0.963104827381,0.0,0.0,0.0,0
2011-07-20 08:15:01,0.0182867787071,0,0.968271309427,0.0,0.0,0.0,0
2011-07-20 09:15:01,0.042888069808,0,0.960919203804,0.0,0.0,0.0,0
2011-07-20 10:15:01,0.049293421254,0,0.945017750286,0.0,0.0,0.0,0
2011-07-20 11:15:01,0.0720703337332,0,0.927056562018,0.0,0.0,0.0,0
2011-07-20 12:15:01,0.123239949141,0,0.829802400374,0.0,0.0,0.0,0
2011-07-20 13:15:01,0.127139695372,0,0.647419706173,0.0,0.0,0.0,0
2011-07-20 14:15:01,0.101741701329,0,0.544837531118,0.0,0.0,0.0,0
2011-07-20 15:15:01,0.065991535488,0,0.67400244291,0.0,0.0,0.0,0
2011-07-20 16:15:01,0.0507385888164,0,0.753250962794,0.0,0.0,0.0,0
2011-07-20 17:15:01,0.041166961656,0,0.785296995793,0.0,0.0,0.0,0
2011-07-20 18:15:01,0.0413852515214,0,0.822141988384,0.0,0.0,0.0,0
2011-07-20 19:15:01,0.0335713516989,0,0.807787576786,0.0,0.0,0.0,0
2011-07-20 20:15:01,0.0293766257754,0,0.774812546238,0.0,0.0,0.0,0
2011-07-20 21:15:01,0.0309110376853,0,0.697482075599,0.0,0.0,0.0,0
2011-07-20 22:15:01,0.0197893936722,0,0.531905514387,0.0,0.0,0.0,0
2011-07-20 23:15:01,0.0319994503545,0,0.735429328569,0.0,0.0,0.0,0
2011-07-21 00:15:01,0.019590216,0,0.865114085582,0.0,0.0,0.0,0
2011-07-21 01:15:01,0.0385071571219,0,0.896572185749,0.0,0.0,0.0,0
2011-07-21 02:15:01,0.0353131658558,0,0.911702219588,0.0,0.0,0.0,0
2011-07-21 03:15:01,0.0236824344303,0,0.92678425543,0.0,0.0,0.0,0
2011-07-21 04:15:01,0.0122608035388,0,0.94742587778,0.0,0.0,0.0,0
2011-07-21 05:15:01,0.00807660637758,0,0.961434067044,0.0,0.0,0.0,0
2011-07-21 06:15:01,0.00812189474624,0,0.970639867212,0.0,0.0,0.0,0
2011-07-21 07:15:01,0.0119197442263,0,0.977245604843,0.0,0.0,0.0,0
2011-07-21 08:15:01,0.017076788649,0,0.978078109213,0.0,0.0,0.0,0
2011-07-21 09:15:01,0.0403670091935,0,0.975424201029,0.0,0.0,0.0,0
2011-07-21 10:15:01,0.0491790173022,0,0.963788861825,0.0,0.0,0.0,0
2011-07-21 11:15:01,0.0517975038991,0,0.95725901324,0.0,0.0,0.0,0
2011-07-21 12:15:01,0.101822597856,0,0.909186176698,0.0,0.0,0.0,0
2011-07-21 13:15:01,0.0909215025022,0,0.828328513106,0.0,0.0,0.0,0
2011-07-21 14:15:01,0.111228109442,0,0.646627029027,0.0,0.0,0.0,0
2011-07-21 15:15:01,0.0665613814172,0,0.515391363491,0.0,0.0,0.0,0
2011-07-21 16:15:01,0.0527553308434,0,0.586707862714,0.0,0.0,0.0,0
2011-07-21 17:15:01,0.0480476958542,0,0.665549075873,0.0,0.0,0.0,0
2011-07-21 18:15:01,0.0605873392721,0,0.75138276059,0.0,0.0,0.0,0
2011-07-21 22:15:01,0.0320232798642,0,0.735874497375,0.0,0.0,0.0,0
2011-07-22 00:15:01,0.019691720391,0,0.677401311099,0.0,0.0,0.0,0
2011-07-22 01:15:01,0.0321164426559,0,0.635637855519,0.0,0.0,0.0,0
2011-07-22 02:15:01,0.0283387794062,0,0.530850636121,0.0,0.0,0.0,0
2011-07-22 03:15:01,0.0219655059465,0,0.682784666124,0.0,0.0,0.0,0
2011-07-22 04:15:01,0.0127613351431,0,0.851748287865,0.0,0.0,0.0,0
2011-07-22 05:15:01,0.00943704936206,0,0.915239875609,0.0,0.0,0.0,0
2011-07-22 06:15:01,0.0148632546099,0,0.944364100733,0.0,0.0,0.0,0
2011-07-22 07:15:01,0.0173275097724,0,0.96162428307,0.0,0.0,0.0,0
2011-07-22 08:15:01,0.0198465017804,0,0.977521478626,0.0,0.0,0.0,0
2011-07-22 09:15:01,0.0329330455624,0,0.977239282425,0.0,0.0,0.0,0
2011-07-22 10:15:01,0.0285830290016,0,0.974320823678,0.0,0.0,0.0,0
2011-07-22 11:15:01,0.0502046776364,0,0.967411903955,0.0,0.0,0.0,0
2011-07-22 12:15:01,0.0991334965392,0,0.924405007236,0.0,0.0,0.0,0
2011-07-22 13:15:01,0.111171430294,0,0.821303451189,0.0,0.0,0.0,0
2011-07-22 14:15:01,0.0863589470601,0,0.689860718175,0.0,0.0,0.0,0
2011-07-22 15:15:01,0.0466380149464,0,0.610525809472,0.0,0.0,0.0,0
2011-07-22 16:15:01,0.0550423601799,0,0.519433048488,0.0,0.0,0.0,0
2011-07-22 17:15:01,0.0296519161584,0,0.508943392733,0.0,0.0,0.0,0
2011-07-22 18:15:01,0.0400056733238,0,0.555196326264,0.0,0.0,0.0,0
2011-07-22 19:15:01,0.0482902937905,0,0.589967119313,0.0,0.0,0.0,0
2011-07-22 20:15:01,0.0321550688713,0,0.597964608425,0.0,0.0,0.0,0
2011-07-22 21:15:01,0.0242988887578,0,0.539242231731,0.0,0.0,0.0,0
2011-07-22 22:15:01,0.0334138014848,0,0.610600009772,0.0,0.0,0.0,0
2011-07-22 23:15:01,0.0185167951927,0,0.792689892252,0.0,0.0,0.0,0
2011-07-23 03:15:01,0.0291247429802,0,0.874145931277,0.0,0.0,0.0,0
2011-07-23 05:15:01,0.0210146813769,0,0.902190957016,0.0,0.0,0.0,0
2011-07-23 06:15:01,0.0215603018154,0,0.931549780838,0.0,0.0,0.0,0
2011-07-23 07:15:01,0.0258028027932,0,0.934434209035,0.0,0.0,0.0,0
2011-07-23 08:15:01,0.0141721997181,0,0.904392878897,0.0,0.0,0.0,0
2011-07-23 11:15:01,0.0393748621527,0,0.912486700316,0.0,0.0,0.0,0
2011-07-23 12:15:01,0.0606122521477,0,0.884752049594,0.0,0.0,0.0,0
2011-07-23 13:15:01,0.139327118435,0,0.713580664329,0.0,0.0,0.0,0
2011-07-23 14:15:01,0.111961439241,0,0.551764874156,0.0,0.0,0.0,0
2011-07-23 15:15:01,0.0929661066862,0,0.610645170103,0.0,0.0,0.0,0
2011-07-23 16:15:01,0.066417973596,0,0.686849897049,0.0,0.0,0.0,0
2011-07-23 17:15:01,0.0823445924019,0,0.79548894859,0.0,0.0,0.0,0
2011-07-23 18:15:01,0.0509294356311,0,0.838374058271,0.0,0.0,0.0,0
2011-07-23 19:15:01,0.0445058860016,0,0.862380981523,0.0,0.0,0.0,0
2011-07-23 20:15:01,0.0422916090783,0,0.893683805086,0.0,0.0,0.0,0
2011-07-23 21:15:01,0.0267010130728,0,0.880276944875,0.0,0.0,0.0,0