timestamp,value,is_anomaly,anomaly_score,S(t)_reward_low_FP_rate,S(t)_reward_low_FN_rate,S(t)_standard,predicted_anomaly
2011-07-01 00:15:01,0.0218859880932,0,0.5,0.0,0.0,0.0,0
2011-07-01 01:15:01,0.0162844271149,0,0.5,0.0,0.0,0.0,0
2011-07-01 02:15:01,0.0106674120761,0,0.5,0.0,0.0,0.0,0
2011-07-01 03:15:01,0.0152568687688,0,0.5,0.0,0.0,0.0,0
2011-07-01 04:15:01,0.00695533596247,0,0.5,0.0,0.0,0.0,0
2011-07-01 05:15:01,0.00861858761217,0,0.5,0.0,0.0,0.0,0
2011-07-01 06:15:01,0.012154454048,0,0.5,0.0,0.0,0.0,0
2011-07-01 07:15:01,0.0132370251102,0,0.5,0.0,0.0,0.0,0
2011-07-01 08:15:01,0.0138363648776,0,0.5,0.0,0.0,0.0,0
2011-07-01 09:15:01,0.0135162954931,0,0.5,0.0,0.0,0.0,0
2011-07-01 10:15:01,0.0132302784295,0,0.5,0.0,0.0,0.0,0
2011-07-01 11:15:01,0.017931654214,0,0.5,0.0,0.0,0.0,0
2011-07-01 12:15:01,0.0232466562419,0,0.5,0.0,0.0,0.0,0
2011-07-01 13:15:01,0.0195994958146,0,0.5,0.0,0.0,0.0,0
2011-07-01 14:15:01,0.015923985805,0,0.5,0.0,0.0,0.0,0
2011-07-01 15:15:01,0.0121042569965,0,0.5,0.0,0.0,0.0,0
2011-07-01 16:15:01,0.0120377849531,0,0.5,0.0,0.0,0.0,0
2011-07-01 17:15:01,0.0194868558601,0,0.5,0.0,0.0,0.0,0
2011-07-01 18:15:01,0.014212905548,0,0.5,0.0,0.0,0.0,0
2011-07-01 19:15:01,0.0114788187046,0,0.5,0.0,0.0,0.0,0
2011-07-01 20:15:01,0.013383197449,0,0.5,0.0,0.0,0.0,0
2011-07-01 21:15:01,0.0135490956986,0,0.5,0.0,0.0,0.0,0
2011-07-01 22:15:01,0.0150823206782,0,0.5,0.0,0.0,0.0,0
2011-07-01 23:15:01,0.00830584881573,0,0.5,0.0,0.0,0.0,0
2011-07-02 00:15:01,0.0154652938431,0,0.5,0.0,0.0,0.0,0
2011-07-02 01:15:01,0.0184912377423,0,0.5,0.0,0.0,0.0,0
2011-07-02 02:15:01,0.0138138915364,0,0.5,0.0,0.0,0.0,0
2011-07-02 03:15:01,0.0133462897921,0,0.5,0.0,0.0,0.0,0
2011-07-02 04:15:01,0.0129790282515,0,0.5,0.0,0.0,0.0,0
2011-07-02 05:15:01,0.0132418121538,0,0.5,0.0,0.0,0.0,0
2011-07-02 06:15:01,0.0127603610101,0,0.5,0.0,0.0,0.0,0
2011-07-02 07:15:01,0.0140257808676,0,0.5,0.0,0.0,0.0,0
2011-07-02 08:15:01,0.0133957196866,0,0.5,0.0,0.0,0.0,0
2011-07-02 09:15:01,0.0121288077217,0,0.5,0.0,0.0,0.0,0
2011-07-02 10:15:01,0.0122324013007,0,0.5,0.0,0.0,0.0,0
2011-07-02 11:15:01,0.0154947662357,0,0.5,0.0,0.0,0.0,0
2011-07-02 12:15:01,0.0216271162566,0,0.5,0.0,0.0,0.0,0
2011-07-02 13:15:01,0.023060729878,0,0.5,0.0,0.0,0.0,0
2011-07-02 14:15:01,0.0161821564705,0,0.5,0.0,0.0,0.0,0
2011-07-02 15:15:01,0.0154918829139,0,0.5,0.0,0.0,0.0,0
2011-07-02 16:15:01,0.0106654029865,0,0.5,0.0,0.0,0.0,0
2011-07-02 17:15:01,0.0134271786805,0,0.5,0.0,0.0,0.0,0
2011-07-02 18:15:01,0.0141617258464,0,0.5,0.0,0.0,0.0,0
2011-07-02 19:15:01,0.0134430154994,0,0.5,0.0,0.0,0.0,0
2011-07-02 20:15:01,0.0152536530634,0,0.5,0.0,0.0,0.0,0
2011-07-02 21:15:01,0.0156494329561,0,0.5,0.0,0.0,0.0,0
2011-07-02 22:15:01,0.0153054507628,0,0.5,0.0,0.0,0.0,0
2011-07-02 23:15:01,0.00706228916766,0,0.5,0.0,0.0,0.0,0
2011-07-03 00:15:01,0.0181542890375,0,0.5,0.0,0.0,0.0,0
2011-07-03 01:15:01,0.0218443698755,0,0.5,0.0,0.0,0.0,0
2011-07-03 02:15:01,0.0148426238095,0,0.5,0.0,0.0,0.0,0
2011-07-03 03:15:01,0.0173154884953,0,0.5,0.0,0.0,0.0,0
2011-07-03 04:15:01,0.018032819709,0,0.5,0.0,0.0,0.0,0
2011-07-03 05:15:01,0.0183733172371,0,0.5,0.0,0.0,0.0,0
2011-07-03 06:15:01,0.0193285051777,0,0.5,0.0,0.0,0.0,0
2011-07-03 07:15:01,0.0210650220481,0,0.5,0.0,0.0,0.0,0
2011-07-03 08:15:01,0.0198218296736,0,0.5,0.0,0.0,0.0,0
2011-07-03 09:15:01,0.0179005411732,0,0.5,0.0,0.0,0.0,0
2011-07-03 10:15:01,0.0162357655889,0,0.5,0.0,0.0,0.0,0
2011-07-03 11:15:01,0.0210088423935,0,0.5,0.0,0.0,0.0,0
2011-07-03 12:15:01,0.0333147696182,0,0.5,0.0,0.0,0.0,0
2011-07-03 13:15:01,0.029888187995,0,0.5,0.0,0.0,0.0,0
2011-07-03 14:15:01,0.0231099940499,0,0.5,0.0,0.0,0.0,0
2011-07-03 15:15:01,0.0145641996319,0,0.5,0.0,0.0,0.0,0
2011-07-03 16:15:01,0.0100742638353,0,0.5,0.0,0.0,0.0,0
2011-07-03 17:15:01,0.0155449276373,0,0.5,0.0,0.0,0.0,0
2011-07-03 18:15:01,0.0161215230382,0,0.5,0.0,0.0,0.0,0
2011-07-03 19:15:01,0.0180930752205,0,0.5,0.0,0.0,0.0,0
2011-07-03 20:15:01,0.0169124748686,0,0.5,0.0,0.0,0.0,0
2011-07-03 21:15:01,0.0160312021185,0,0.5,0.0,0.0,0.0,0
2011-07-03 22:15:01,0.0149181440828,0,0.5,0.0,0.0,0.0,0
2011-07-03 23:15:01,0.00892821092701,0,0.5,0.0,0.0,0.0,0
2011-07-04 00:15:01,0.0181235056459,0,0.5,0.0,0.0,0.0,0
2011-07-04 01:15:01,0.0209095481463,0,0.5,0.0,0.0,0.0,0
2011-07-04 02:15:01,0.0204357031082,0,0.5,0.0,0.0,0.0,0
2011-07-04 03:15:01,0.0220768002418,0,0.5,0.0,0.0,0.0,0
2011-07-04 04:15:01,0.0166907761676,0,0.5,0.0,0.0,0.0,0
2011-07-04 05:15:01,0.0140811862185,0,0.5,0.0,0.0,0.0,0
2011-07-04 06:15:01,0.0160101542635,0,0.5,0.0,0.0,0.0,0
2011-07-04 07:15:01,0.0169215644408,0,0.5,0.0,0.0,0.0,0
2011-07-04 08:15:01,0.0166932595584,0,0.5,0.0,0.0,0.0,0
2011-07-04 09:15:01,0.0165252822656,0,0.5,0.0,0.0,0.0,0
2011-07-04 10:15:01,0.0151991887974,0,0.5,0.0,0.0,0.0,0
2011-07-04 11:15:01,0.0208787512448,0,0.5,0.0,0.0,0.0,0
2011-07-04 12:15:01,0.0271382422273,0,0.5,0.0,0.0,0.0,0
2011-07-04 13:15:01,0.0278757169164,0,0.5,0.0,0.0,0.0,0
2011-07-04 14:15:01,0.0178461197776,0,0.5,0.0,0.0,0.0,0
2011-07-04 15:15:01,0.01222157654,0,0.5,0.0,0.0,0.0,0
2011-07-04 16:15:01,0.0144670491684,0,0.5,0.0,0.0,0.0,0
2011-07-04 17:15:01,0.0150137234226,0,0.5,0.0,0.0,0.0,0
2011-07-04 18:15:01,0.0162780223435,0,0.5,0.0,0.0,0.0,0
2011-07-04 19:15:01,0.0171038873036,0,0.5,0.0,0.0,0.0,0
2011-07-04 20:15:01,0.0142219735275,0,0.5,0.0,0.0,0.0,0
2011-07-04 21:15:01,0.0125103433647,0,0.5,0.0,0.0,0.0,0
2011-07-04 22:15:01,0.0131754957625,0,0.5,0.0,0.0,0.0,0
2011-07-04 23:15:01,0.00693181037847,0,0.5,0.0,0.0,0.0,0
2011-07-05 00:15:01,0.0134531510401,0,0.5,0.0,0.0,0.0,0
2011-07-05 01:15:01,0.01549236811,0,0.5,0.0,0.0,0.0,0
2011-07-05 02:15:01,0.0115708007732,0,0.5,0.0,0.0,0.0,0
2011-07-05 03:15:01,0.0122328869633,0,0.5,0.0,0.0,0.0,0
2011-07-05 04:15:01,0.0122225014106,0,0.5,0.0,0.0,0.0,0
2011-07-05 05:15:01,0.0115348855222,0,0.5,0.0,0.0,0.0,0
2011-07-05 06:15:01,0.0536392382134,0,0.5,0.0,0.0,0.0,0
2011-07-05 07:15:01,0.0127165010936,0,0.5,0.0,0.0,0.0,0
2011-07-05 08:15:01,0.013341790812,0,0.5,0.0,0.0,0.0,0
2011-07-05 09:15:01,0.015039950719,0,0.5,0.0,0.0,0.0,0
2011-07-05 10:15:01,0.0148190726515,0,0.5,0.0,0.0,0.0,0
2011-07-05 11:15:01,0.0209734700134,0,0.5,0.0,0.0,0.0,0
2011-07-05 12:15:01,0.0249075788712,0,0.5,0.0,0.0,0.0,0
2011-07-05 13:15:01,0.0238880982081,0,0.5,0.0,0.0,0.0,0
2011-07-05 14:15:01,0.0168627968435,0,0.5,0.0,0.0,0.0,0
2011-07-05 15:15:01,0.0113720097018,0,0.5,0.0,0.0,0.0,0
2011-07-05 16:15:01,0.0117985509228,0,0.5,0.0,0.0,0.0,0
2011-07-05 17:15:01,0.0145723482523,0,0.5,0.0,0.0,0.0,0
2011-07-05 18:15:01,0.0116327754739,0,0.5,0.0,0.0,0.0,0
2011-07-05 19:15:01,0.0106689959216,0,0.5,0.0,0.0,0.0,0
2011-07-05 20:15:01,0.0111577853333,0,0.5,0.0,0.0,0.0,0
2011-07-05 21:15:01,0.0101633635575,0,0.5,0.0,0.0,0.0,0
2011-07-05 22:15:01,0.0104400330536,0,0.5,0.0,0.0,0.0,0
2011-07-05 23:15:01,0.00700658013232,0,0.5,0.0,0.0,0.0,0
2011-07-06 00:15:01,0.0108056346699,0,0.5,0.0,0.0,0.0,0
2011-07-06 01:15:01,0.0141411076845,0,0.5,0.0,0.0,0.0,0
2011-07-06 02:15:01,0.0105215141722,0,0.5,0.0,0.0,0.0,0
2011-07-06 03:15:01,0.0108946178034,0,0.5,0.0,0.0,0.0,0
2011-07-06 04:15:01,0.0113374105453,0,0.5,0.0,0.0,0.0,0
2011-07-06 05:15:01,0.010393687739,0,0.5,0.0,0.0,0.0,0
2011-07-06 06:15:01,0.0125312652155,0,0.5,0.0,0.0,0.0,0
2011-07-06 07:15:01,0.0139922356294,0,0.5,0.0,0.0,0.0,0
2011-07-06 08:15:01,0.014350424246,0,0.5,0.0,0.0,0.0,0
2011-07-06 09:15:01,0.0157368571688,0,0.5,0.0,0.0,0.0,0
2011-07-06 10:15:01,0.0157092123949,0,0.5,0.0,0.0,0.0,0
2011-07-06 11:15:01,0.0202761229478,0,0.5,0.0,0.0,0.0,0
2011-07-06 12:15:01,0.0250938395357,0,0.5,0.0,0.0,0.0,0
2011-07-06 13:15:01,0.0224048961567,0,0.5,0.0,0.0,0.0,0
2011-07-06 14:15:01,0.0156647266478,0,0.5,0.0,0.0,0.0,0
2011-07-06 15:15:01,0.0106509727221,0,0.5,0.0,0.0,0.0,0
2011-07-06 16:15:01,0.01646733994,0,0.5,0.0,0.0,0.0,0
2011-07-06 17:15:01,0.0163832574018,0,0.5,0.0,0.0,0.0,0
2011-07-06 18:15:01,0.016804542431,0,0.5,0.0,0.0,0.0,0
2011-07-06 19:15:01,0.0164674129799,0,0.5,0.0,0.0,0.0,0
2011-07-06 20:15:01,0.0160022201133,0,0.5,0.0,0.0,0.0,0
2011-07-06 21:15:01,0.0151131929788,0,0.5,0.0,0.0,0.0,0
2011-07-06 22:15:01,0.0180771133368,0,0.5,0.0,0.0,0.0,0
2011-07-06 23:15:01,0.00997481752744,0,0.5,0.0,0.0,0.0,0
2011-07-07 00:15:01,0.0185246019027,0,0.5,0.0,0.0,0.0,0
2011-07-07 01:15:01,0.024048313287,0,0.5,0.0,0.0,0.0,0
2011-07-07 02:15:01,0.0184844601059,0,0.5,0.0,0.0,0.0,0
2011-07-07 03:15:01,0.0220531152263,0,0.5,0.0,0.0,0.0,0
2011-07-07 04:15:01,0.0208749559638,0,0.5,0.0,0.0,0.0,0
2011-07-07 05:15:01,0.0214448950847,0,0.5,0.0,0.0,0.0,0
2011-07-07 06:15:01,0.0208556339521,0,0.5,0.0,0.0,0.0,0
2011-07-07 07:15:01,0.021687114107,0,0.5,0.0,0.0,0.0,0
2011-07-07 08:15:01,0.020972732236,0,0.5,0.0,0.0,0.0,0
2011-07-07 09:15:01,0.0193792118756,0,0.5,0.0,0.0,0.0,0
2011-07-07 10:15:01,0.0175714456132,0,0.5,0.0,0.0,0.0,0
2011-07-07 11:15:01,0.0202345266498,0,0.5,0.0,0.0,0.0,0
2011-07-07 12:15:01,0.0253369393424,0,0.5,0.0,0.0,0.0,0
2011-07-07 13:15:01,0.0197834775593,0,0.5,0.0,0.0,0.0,0
2011-07-07 14:15:01,0.0143259713471,0,0.5,0.0,0.0,0.0,0
2011-07-07 15:15:01,0.0104505021953,0,0.5,0.0,0.0,0.0,0
2011-07-07 16:15:01,0.015015498076,0,0.5,0.0,0.0,0.0,0
2011-07-07 17:15:01,0.0141776904477,0,0.5,0.0,0.0,0.0,0
2011-07-07 18:15:01,0.0135227048258,0,0.5,0.0,0.0,0.0,0
2011-07-07 19:15:01,0.0120142401607,0,0.5,0.0,0.0,0.0,0
2011-07-07 20:15:01,0.013099257159,0,0.5,0.0,0.0,0.0,0
2011-07-07 21:15:01,0.0138069115085,0,0.5,0.0,0.0,0.0,0
2011-07-07 22:15:01,0.0101051977997,0,0.5,0.0,0.0,0.0,0
2011-07-07 23:15:01,0.00772651477494,0,0.5,0.0,0.0,0.0,0
2011-07-08 00:15:01,0.0128340207854,0,0.5,0.0,0.0,0.0,0
2011-07-08 01:15:01,0.0136942654133,0,0.5,0.0,0.0,0.0,0
2011-07-08 02:15:01,0.0120952759297,0,0.5,0.0,0.0,0.0,0
2011-07-08 03:15:01,0.0122046888394,0,0.5,0.0,0.0,0.0,0
2011-07-08 04:15:01,0.0120000788926,0,0.5,0.0,0.0,0.0,0
2011-07-08 05:15:01,0.0130459365336,0,0.5,0.0,0.0,0.0,0
2011-07-08 06:15:01,0.0137835082946,0,0.5,0.0,0.0,0.0,0
2011-07-08 07:15:01,0.0157686334637,0,0.5,0.0,0.0,0.0,0
2011-07-08 08:15:01,0.0169333584608,0,0.5,0.0,0.0,0.0,0
2011-07-08 09:15:01,0.0162015555253,0,0.5,0.0,0.0,0.0,0
2011-07-08 10:15:01,0.0152766993039,0,0.5,0.0,0.0,0.0,0
2011-07-08 11:15:01,0.0190789179916,0,0.5,0.0,0.0,0.0,0
2011-07-08 12:15:01,0.0223484525188,0,0.5,0.0,0.0,0.0,0
2011-07-08 13:15:01,0.021170859905,0,0.5,0.0,0.0,0.0,0
2011-07-08 14:15:01,0.0152547636691,0,0.5,0.0,0.0,0.0,0
2011-07-08 15:15:01,0.0107859546864,0,0.5,0.0,0.0,0.0,0
2011-07-08 16:15:01,0.0148533882913,0,0.5,0.0,0.0,0.0,0
2011-07-08 17:15:01,0.0171947415848,0,0.5,0.0,0.0,0.0,0
2011-07-08 18:15:01,0.0170472779062,0,0.5,0.0,0.0,0.0,0
2011-07-08 19:15:01,0.0162405317965,0,0.5,0.0,0.0,0.0,0
2011-07-08 20:15:01,0.0164675505421,0,0.5,0.0,0.0,0.0,0
2011-07-08 21:15:01,0.0166334743816,0,0.5,0.0,0.0,0.0,0
2011-07-08 22:15:01,0.0168336246391,0,0.5,0.0,0.0,0.0,0
2011-07-08 23:15:01,0.00867522455089,0,0.5,0.0,0.0,0.0,0
2011-07-09 00:15:01,0.0138127253226,0,0.5,0.0,0.0,0.0,0
2011-07-09 01:15:01,0.0160120865629,0,0.5,0.0,0.0,0.0,0
2011-07-09 02:15:01,0.0199238406269,0,0.5,0.0,0.0,0.0,0
2011-07-09 03:15:01,0.0137913356235,0,0.5,0.0,0.0,0.0,0
2011-07-09 04:15:01,0.0106218473275,0,0.5,0.0,0.0,0.0,0
2011-07-09 05:15:01,0.0172094628799,0,0.5,0.0,0.0,0.0,0
2011-07-09 06:15:01,0.0101911864898,0,0.5,0.0,0.0,0.0,0
2011-07-09 07:15:01,0.00477340723942,0,0.5,0.0,0.0,0.0,0
2011-07-09 08:15:01,0.00820868935196,0,0.5,0.0,0.0,0.0,0
2011-07-09 09:15:01,0.00742211828949,0,0.5,0.0,0.0,0.0,0
2011-07-09 10:15:01,0.00704156099375,0,0.5,0.0,0.0,0.0,0
2011-07-09 11:15:01,0.0126199092628,0,0.5,0.0,0.0,0.0,0
2011-07-09 12:15:01,0.0176473971632,0,0.5,0.0,0.0,0.0,0
2011-07-09 13:15:01,0.0176341312619,0,0.5,0.0,0.0,0.0,0
2011-07-09 14:15:01,0.013642359019,0,0.5,0.0,0.0,0.0,0
2011-07-09 15:15:01,0.0100346307272,0,0.5,0.0,0.0,0.0,0
2011-07-09 16:15:01,0.00520313497804,0,0.5,0.0,0.0,0.0,0
2011-07-09 17:15:01,0.00435681700349,0,0.5,0.0,0.0,0.0,0
2011-07-09 18:15:01,0.007713749033,0,0.5,0.0,0.0,0.0,0
2011-07-09 19:15:01,0.0113702048722,0,0.5,0.0,0.0,0.0,0
2011-07-09 20:15:01,0.00658318048434,0,0.5,0.0,0.0,0.0,0
2011-07-09 21:15:01,0.0101727744913,0,0.5,0.0,0.0,0.0,0
2011-07-09 22:15:01,0.0120726666044,0,0.5,0.0,0.0,0.0,0
2011-07-09 23:15:01,0.004294599412,0,0.5,0.0,0.0,0.0,0
2011-07-10 00:15:01,0.0127006886066,0,0.5,0.0,0.0,0.0,0
2011-07-10 01:15:01,0.0204536104398,0,0.5,0.0,0.0,0.0,0
2011-07-10 02:15:01,0.0130211271792,0,0.5,0.0,0.0,0.0,0
2011-07-10 03:15:01,0.0115419432743,0,0.5,0.0,0.0,0.0,0
2011-07-10 04:15:01,0.0133245181347,0,0.5,0.0,0.0,0.0,0
2011-07-10 05:15:01,0.0123715623773,0,0.5,0.0,0.0,0.0,0
2011-07-10 06:15:01,0.0129298426657,0,0.5,0.0,0.0,0.0,0
2011-07-10 07:15:01,0.0117342197556,0,0.5,0.0,0.0,0.0,0
2011-07-10 08:15:01,0.00923495795738,0,0.5,0.0,0.0,0.0,0
2011-07-10 09:15:01,0.00664291730598,0,0.5,0.0,0.0,0.0,0
2011-07-10 10:15:01,0.00693684244327,0,0.5,0.0,0.0,0.0,0
2011-07-10 11:15:01,0.0120821793398,0,0.5,0.0,0.0,0.0,0
2011-07-10 12:15:01,0.0166163042698,0,0.5,0.0,0.0,0.0,0
2011-07-10 13:15:01,0.0195641365985,0,0.5,0.0,0.0,0.0,0
2011-07-10 14:15:01,0.0139566622955,0,0.5,0.0,0.0,0.0,0
2011-07-10 15:15:01,0.0109320012734,0,0.5,0.0,0.0,0.0,0
2011-07-10 16:15:01,0.00662825082311,0,0.5,0.0,0.0,0.0,0
2011-07-10 17:15:01,0.00384905844076,0,0.5,0.0,0.0,0.0,0
2011-07-10 18:15:01,0.00597470588064,0,0.5,0.0,0.0,0.0,0
2011-07-10 19:15:01,0.00946795688898,0,0.5,0.0,0.0,0.0,0
2011-07-10 20:15:01,0.00752332138483,0,0.5,0.0,0.0,0.0,0
2011-07-10 21:15:01,0.0115599849716,0,0.5,0.0,0.0,0.0,0
2011-07-10 22:15:01,0.00978469927058,0,0.5,0.0,0.0,0.0,0
2011-07-10 23:15:01,0.00406484252508,0,0.5,0.0,0.0,0.0,0
2011-07-11 00:15:01,0.00322198013173,0,0.5,0.0,0.0,0.0,0
2011-07-11 01:15:01,0.00885906964931,0,0.5,0.0,0.0,0.0,0
2011-07-11 03:15:01,0.0139685105557,0,0.5,0.0,0.0,0.0,0
2011-07-11 04:15:01,0.0116624379789,0,0.5,0.0,0.0,0.0,0
2011-07-11 05:15:01,0.01018930695,0,0.5,0.0,0.0,0.0,0
2011-07-11 06:15:01,0.00749170135703,0,0.5,0.0,0.0,0.0,0
2011-07-11 07:15:01,0.00621900146585,0,0.5,0.0,0.0,0.0,0
2011-07-11 08:15:01,0.00247162019878,0,0.5,0.0,0.0,0.0,0
2011-07-11 09:15:01,0.00310968052357,0,0.5,0.0,0.0,0.0,0
2011-07-11 10:15:01,0.00393164180125,0,0.5,0.0,0.0,0.0,0
2011-07-11 11:15:01,0.013429397384,0,0.5,0.0,0.0,0.0,0
2011-07-11 12:15:01,0.0193275897739,0,0.5,0.0,0.0,0.0,0
2011-07-11 13:15:01,0.0137404309438,0,0.5,0.0,0.0,0.0,0
2011-07-11 14:15:01,0.0107543227071,0,0.5,0.0,0.0,0.0,0
2011-07-11 15:15:01,0.0100806175991,0,0.5,0.0,0.0,0.0,0
2011-07-11 16:15:01,0.00558619527723,0,0.5,0.0,0.0,0.0,0
2011-07-11 17:15:01,0.0105802376219,0,0.5,0.0,0.0,0.0,0
2011-07-11 18:15:01,0.0120665251899,0,0.5,0.0,0.0,0.0,0
2011-07-11 19:15:01,0.0132907521287,0,0.5,0.0,0.0,0.0,0
2011-07-11 20:15:01,0.0112944655904,0,0.5,0.0,0.0,0.0,0
2011-07-11 21:15:01,0.0126301980668,0,0.5,0.0,0.0,0.0,0
2011-07-11 22:15:01,0.0133441020357,0,0.5,0.0,0.0,0.0,0
2011-07-11 23:15:01,0.00488872111732,0,0.5,0.0,0.0,0.0,0
2011-07-12 00:15:01,0.0127132679892,0,0.5,0.0,0.0,0.0,0
2011-07-12 01:15:01,0.0235494895035,0,0.5,0.0,0.0,0.0,0
2011-07-12 02:15:01,0.0154879642745,0,0.5,0.0,0.0,0.0,0
2011-07-12 03:15:01,0.0123641654344,0,0.5,0.0,0.0,0.0,0
2011-07-12 04:15:01,0.0119881601655,0,0.5,0.0,0.0,0.0,0
2011-07-12 05:15:01,0.0132313048738,0,0.5,0.0,0.0,0.0,0
2011-07-12 06:15:01,0.0110674135252,0,0.5,0.0,0.0,0.0,0
2011-07-12 07:15:01,0.0110240461746,0,0.5,0.0,0.0,0.0,0
2011-07-12 08:15:01,0.00908749794618,0,0.5,0.0,0.0,0.0,0
2011-07-12 09:15:01,0.00715772493352,0,0.5,0.0,0.0,0.0,0
2011-07-12 10:15:01,0.00723890104327,0,0.5,0.0,0.0,0.0,0
2011-07-12 11:15:01,0.011485143643,0,0.5,0.0,0.0,0.0,0
2011-07-12 12:15:01,0.0166325918573,0,0.5,0.0,0.0,0.0,0
2011-07-12 13:15:01,0.0161156169546,0,0.5,0.0,0.0,0.0,0
2011-07-12 14:15:01,0.0116096000609,0,0.5,0.0,0.0,0.0,0
2011-07-12 15:15:01,0.00920528769348,0,0.5,0.0,0.0,0.0,0
2011-07-12 16:15:01,0.005421208705,0,0.5,0.0,0.0,0.0,0
2011-07-12 17:15:01,0.0036024178669,0,0.5,0.0,0.0,0.0,0
2011-07-12 18:15:01,0.00932583498975,0,0.5,0.0,0.0,0.0,0
2011-07-12 20:15:01,0.0079349929179,0,0.5,0.0,0.0,0.0,0
2011-07-12 21:15:01,0.00297516745481,0,0.5,0.0,0.0,0.0,0
2011-07-12 22:15:01,0.00490667230755,0,0.5,0.0,0.0,0.0,0
2011-07-12 23:15:01,0.00306500469082,0,0.5,0.0,0.0,0.0,0
2011-07-13 00:15:01,0.000406235735507,0,0.5,0.0,0.0,0.0,0
2011-07-13 01:15:01,0.00162605516698,0,0.5,0.0,0.0,0.0,0
2011-07-13 02:15:01,0.00197208235119,0,0.5,0.0,0.0,0.0,0
2011-07-13 03:15:01,0.00203748064064,0,0.5,0.0,0.0,0.0,0
2011-07-13 04:15:01,0.00285034805497,0,0.5,0.0,0.0,0.0,0
2011-07-13 05:15:01,0.00140110877337,0,0.5,0.0,0.0,0.0,0
2011-07-13 06:15:01,0.00183449021163,0,0.5,0.0,0.0,0.0,0
2011-07-13 07:15:01,0.00274770146885,0,0.5,0.0,0.0,0.0,0
2011-07-13 08:15:01,0.0039079000897,0,0.5,0.0,0.0,0.0,0
2011-07-13 09:15:01,0.00559745269388,0,0.5,0.0,0.0,0.0,0
2011-07-13 10:15:01,0.00861604609337,0,0.5,0.0,0.0,0.0,0
2011-07-13 11:15:01,0.0154832164102,0,0.5,0.0,0.0,0.0,0
2011-07-13 12:15:01,0.0191584752123,0,0.5,0.0,0.0,0.0,0
2011-07-13 13:15:01,0.0153558174394,0,0.5,0.0,0.0,0.0,0
2011-07-13 14:15:01,0.0122041288327,0,0.5,0.0,0.0,0.0,0
2011-07-13 15:15:01,0.00895970258869,0,0.5,0.0,0.0,0.0,0
2011-07-13 16:15:01,0.00553117416413,0,0.5,0.0,0.0,0.0,0
2011-07-13 17:15:01,0.00442302451852,0,0.5,0.0,0.0,0.0,0
2011-07-13 18:15:01,0.00319083431334,0,0.5,0.0,0.0,0.0,0
2011-07-13 19:15:01,0.00320736455518,0,0.5,0.0,0.0,0.0,0
2011-07-13 20:15:01,0.00284019734237,0,0.5,0.0,0.0,0.0,0
2011-07-13 21:15:01,0.00242777762759,0,0.5,0.0,0.0,0.0,0
2011-07-13 22:15:01,0.00239334727229,0,0.5,0.0,0.0,0.0,0
2011-07-13 23:15:01,0.00219403190379,0,0.5,0.0,0.0,0.0,0
2011-07-14 00:15:01,0.0062032382111,0,0.5,0.0,0.0,0.0,0
2011-07-14 01:15:01,0.00359643117393,0,0.5,0.0,0.0,0.0,0
2011-07-14 02:15:01,0.00585405556965,0,0.5,0.0,0.0,0.0,0
2011-07-14 03:15:01,0.00559272568129,0,0.5,0.0,0.0,0.0,0
2011-07-14 04:15:01,0.00365121200622,0,0.5,0.0,0.0,0.0,0
2011-07-14 05:15:01,0.00242072731049,0,0.5,0.0,0.0,0.0,0
2011-07-14 06:15:01,0.00212525108463,0,0.5,0.0,0.0,0.0,0
2011-07-14 07:15:01,0.00272552979492,0,0.5,0.0,0.0,0.0,0
2011-07-14 08:15:01,0.00423205777007,0,0.5,0.0,0.0,0.0,0
2011-07-14 09:15:01,0.00575424088643,0,0.5,0.0,0.0,0.0,0
2011-07-14 10:15:01,0.00786763813707,0,0.5,0.0,0.0,0.0,0
2011-07-14 11:15:01,0.0138663897574,0,0.5,0.0,0.0,0.0,0
2011-07-14 12:15:01,0.0177471662877,0,0.5,0.0,0.0,0.0,0
2011-07-14 13:15:01,0.0167795198407,0,0.5,0.0,0.0,0.0,0
2011-07-14 14:15:01,0.0126578750125,0,0.5,0.0,0.0,0.0,0
2011-07-14 15:15:01,0.0096143648588,0,0.5,0.0,0.0,0.0,0
2011-07-14 16:15:01,0.00622889144994,0,0.5,0.0,0.0,0.0,0
2011-07-14 17:15:01,0.00590714014621,0,0.5,0.0,0.0,0.0,0
2011-07-14 18:15:01,0.00597879765758,0,0.5,0.0,0.0,0.0,0
2011-07-14 19:15:01,0.0074738885114,0,0.5,0.0,0.0,0.0,0
2011-07-14 20:15:01,0.00573261424226,0,0.5,0.0,0.0,0.0,0
2011-07-14 21:15:01,0.00500705698431,0,0.5,0.0,0.0,0.0,0
2011-07-14 22:15:01,0.00720561599557,0,0.5,0.0,0.0,0.0,0
2011-07-14 23:15:01,0.00460991424246,0,0.5,0.0,0.0,0.0,0
2011-07-15 00:15:01,0.0102328350827,0,0.5,0.0,0.0,0.0,0
2011-07-15 01:15:01,0.00709331124956,0,0.5,0.0,0.0,0.0,0
2011-07-15 02:15:01,0.0347706605147,0,0.5,0.0,0.0,0.0,0
2011-07-15 03:15:01,0.00491438093566,0,0.5,0.0,0.0,0.0,0
2011-07-15 04:15:01,0.00106687459907,0,0.5,0.0,0.0,0.0,0
2011-07-15 05:15:01,0.00225410907291,0,0.5,0.0,0.0,0.0,0
2011-07-15 06:15:01,0.00269926641704,1,0.5,-1.0,-2.0,-1.0,0
2011-07-15 07:15:01,0.00561587789381,1,0.5,0.0,0.0,0.0,0
2011-07-15 08:15:01,0.00459015131191,1,0.5,0.0,0.0,0.0,0
2011-07-15 09:15:01,0.00612574658899,1,0.5,0.0,0.0,0.0,0
2011-07-15 10:15:01,0.00796424127383,1,0.5,0.0,0.0,0.0,0
2011-07-15 11:15:01,0.0116577468943,1,0.5,0.0,0.0,0.0,0
2011-07-15 12:15:01,0.0131848180407,1,0.5,0.0,0.0,0.0,0
2011-07-15 13:15:01,0.0124137101723,1,0.5,0.0,0.0,0.0,0
2011-07-15 14:15:01,0.00919254657781,1,0.5,0.0,0.0,0.0,0
2011-07-15 15:15:01,0.00661465582116,1,0.5,0.0,0.0,0.0,0
2011-07-15 16:15:01,0.00688317514023,1,0.5,0.0,0.0,0.0,0
2011-07-15 17:15:01,0.00606201680267,1,0.5,0.0,0.0,0.0,0
2011-07-15 18:15:01,0.00838085403658,1,0.5,0.0,0.0,0.0,0
2011-07-15 19:15:01,0.0102667178394,1,0.5,0.0,0.0,0.0,0
2011-07-15 20:15:01,0.0102811007912,1,0.5,0.0,0.0,0.0,0
2011-07-15 21:15:01,0.00601162939917,1,0.5,0.0,0.0,0.0,0
2011-07-15 22:15:01,0.00771604018701,1,0.5,0.0,0.0,0.0,0
2011-07-15 23:15:01,0.007398323148,1,0.5,0.0,0.0,0.0,0
2011-07-16 00:15:01,0.0119094504793,1,0.5,0.0,0.0,0.0,0
2011-07-16 01:15:01,0.0158588199532,1,0.5,0.0,0.0,0.0,0
2011-07-16 02:15:01,0.0147658998345,1,0.5,0.0,0.0,0.0,0
2011-07-16 03:15:01,0.0129193639659,1,0.5,0.0,0.0,0.0,0
2011-07-16 04:15:01,0.00619372487213,1,0.5,0.0,0.0,0.0,0
2011-07-16 05:15:01,0.00563053208765,1,0.5,0.0,0.0,0.0,0
2011-07-16 06:15:01,0.00782351392984,1,0.5,0.0,0.0,0.0,0
2011-07-16 07:15:01,0.00983212260221,1,0.5,0.0,0.0,0.0,0
2011-07-16 08:15:01,0.0109347042474,1,0.5,0.0,0.0,0.0,0
2011-07-16 09:15:01,0.616815688065,1,0.5,0.0,0.0,0.0,0
2011-07-16 10:15:01,0.00475799051623,1,0.5,0.0,0.0,0.0,0
2011-07-16 11:15:01,0.0251579926115,1,0.5,0.0,0.0,0.0,0
2011-07-16 12:15:01,0.0290928708691,1,0.5,0.0,0.0,0.0,0
2011-07-16 13:15:01,0.0248305486773,1,0.5,0.0,0.0,0.0,0
2011-07-16 14:15:01,0.507106607528,1,0.5,0.0,0.0,0.0,0
2011-07-16 15:15:01,0.0135962809226,1,0.5,0.0,0.0,0.0,0
2011-07-16 16:15:01,0.0194611955425,1,0.5,0.0,0.0,0.0,0
2011-07-16 17:15:01,0.0153112168744,1,0.5,0.0,0.0,0.0,0
2011-07-16 18:15:01,0.0152504929105,1,0.5,0.0,0.0,0.0,0
2011-07-16 19:15:01,0.0211947807969,1,0.5,0.0,0.0,0.0,0
2011-07-16 20:15:01,0.0206474811753,1,0.5,0.0,0.0,0.0,0
2011-07-16 21:15:01,0.0172030769057,1,0.5,0.0,0.0,0.0,0
2011-07-16 22:15:01,0.0172106977923,1,0.5,0.0,0.0,0.0,0
2011-07-16 23:15:01,0.0159866430696,1,0.5,0.0,0.0,0.0,0
2011-07-17 00:15:01,0.0146825573659,1,0.5,0.0,0.0,0.0,0
2011-07-17 01:15:01,0.0159247077043,1,0.5,0.0,0.0,0.0,0
2011-07-17 02:15:01,0.0162293601312,1,0.5,0.0,0.0,0.0,0
2011-07-17 03:15:01,0.0134758024355,1,0.5,0.0,0.0,0.0,0
2011-07-17 04:15:01,0.00960688664849,1,0.5,0.0,0.0,0.0,0
2011-07-17 05:15:01,0.00864826975789,1,0.5,0.0,0.0,0.0,0
2011-07-17 06:15:01,0.00564562137461,1,0.704716526347,0.0,0.0,0.0,0
2011-07-17 07:15:01,0.00697068692717,1,0.716102318425,0.0,0.0,0.0,0
2011-07-17 08:15:01,0.00739041828767,1,0.726827977313,0.0,0.0,0.0,0
2011-07-17 09:15:01,0.0134412424081,1,0.729574921703,0.0,0.0,0.0,0
2011-07-17 10:15:01,0.018902321762,1,0.725013530458,0.0,0.0,0.0,0
2011-07-17 11:15:01,0.0216395559961,1,0.718776202189,0.0,0.0,0.0,0
2011-07-17 12:15:01,0.0291248938569,1,0.704455870224,0.0,0.0,0.0,0
2011-07-17 13:15:01,0.0284666821712,0,0.687399723177,0.0,0.0,0.0,0
2011-07-17 14:15:01,0.0220925817999,0,0.67287874646,0.0,0.0,0.0,0
2011-07-17 15:15:01,0.0167489918792,0,0.663313747883,0.0,0.0,0.0,0
2011-07-17 16:15:01,0.0221397773045,0,0.643513878041,0.0,0.0,0.0,0
2011-07-17 17:15:01,0.00994105619003,0,0.639904814935,0.0,0.0,0.0,0
2011-07-17 18:15:01,0.0121710503399,0,0.641253312894,0.0,0.0,0.0,0
2011-07-17 19:15:01,0.0116938631104,0,0.643493678781,0.0,0.0,0.0,0
2011-07-17 20:15:01,0.0111239950342,0,0.653405587772,0.0,0.0,0.0,0
2011-07-17 21:15:01,0.0106593000777,0,0.667219432677,0.0,0.0,0.0,0
2011-07-17 22:15:01,0.0100999283214,0,0.690616323518,0.0,0.0,0.0,0
2011-07-17 23:15:01,0.00946319580289,0,0.713239771077,0.0,0.0,0.0,0
2011-07-18 00:15:01,0.00877676826961,0,0.728609720997,0.0,0.0,0.0,0
2011-07-18 01:15:01,0.00869997798071,0,0.737697067972,0.0,0.0,0.0,0
2011-07-18 02:15:01,0.00968397726551,0,0.751445925943,0.0,0.0,0.0,0
2011-07-18 03:15:01,0.00958372604216,0,0.751834606607,0.0,0.0,0.0,0
2011-07-18 04:15:01,0.00865625218842,0,0.755640439298,0.0,0.0,0.0,0
2011-07-18 05:15:01,0.00809890985511,0,0.75950029059,0.0,0.0,0.0,0
2011-07-18 06:15:01,0.00511284540413,0,0.765879522751,0.0,0.0,0.0,0
2011-07-18 07:15:01,0.00533598404773,0,0.771449671919,0.0,0.0,0.0,0
2011-07-18 08:15:01,0.00570680434742,0,0.775989876479,0.0,0.0,0.0,0
2011-07-18 09:15:01,0.0117502426339,0,0.773632681718,0.0,0.0,0.0,0
2011-07-18 10:15:01,0.0153738977973,0,0.766755304141,0.0,0.0,0.0,0
2011-07-18 11:15:01,0.0205899902532,0,0.754072417039,0.0,0.0,0.0,0
2011-07-18 12:15:01,0.0228466832271,0,0.739611379113,0.0,0.0,0.0,0
2011-07-18 13:15:01,0.020640987768,0,0.727133524224,0.0,0.0,0.0,0
2011-07-18 14:15:01,0.017348724811,0,0.717120365321,0.0,0.0,0.0,0
2011-07-18 15:15:01,0.0138400528429,0,0.710411607408,0.0,0.0,0.0,0
2011-07-18 16:15:01,0.0130048453673,0,0.701069454701,0.0,0.0,0.0,0
2011-07-18 17:15:01,0.0111391242411,0,0.694113869659,0.0,0.0,0.0,0
2011-07-18 18:15:01,0.0116392737683,0,0.686930180255,0.0,0.0,0.0,0
2011-07-18 19:15:01,0.0118233805373,0,0.68684116488,0.0,0.0,0.0,0
2011-07-18 20:15:01,0.0113481692757,0,0.691724521928,0.0,0.0,0.0,0
2011-07-18 21:15:01,0.00711922161795,0,0.707816152691,0.0,0.0,0.0,0
2011-07-18 22:15:01,0.00890197270137,0,0.724050059876,0.0,0.0,0.0,0
2011-07-18 23:15:01,0.00722872879151,0,0.739234178631,0.0,0.0,0.0,0
2011-07-19 00:15:01,0.00756648820596,0,0.750031162657,0.0,0.0,0.0,0
2011-07-19 01:15:01,0.00692604459412,0,0.757516821118,0.0,0.0,0.0,0
2011-07-19 02:15:01,0.00509213545916,0,0.76593254876,0.0,0.0,0.0,0
2011-07-19 03:15:01,0.00529079673245,0,0.772047213627,0.0,0.0,0.0,0
2011-07-19 04:15:01,0.00459767351198,0,0.77928878315,0.0,0.0,0.0,0
2011-07-19 05:15:01,0.00219509195534,0,0.788973974415,0.0,0.0,0.0,0
2011-07-19 06:15:01,0.00334439899033,0,0.796832047656,0.0,0.0,0.0,0
2011-07-19 07:15:01,0.0045210602356,0,0.799344871317,0.0,0.0,0.0,0
2011-07-19 08:15:01,0.00700106502804,0,0.801171467938,0.0,0.0,0.0,0
2011-07-19 09:15:01,0.0141210950894,0,0.794500819738,0.0,0.0,0.0,0
2011-07-19 10:15:01,0.0186788065642,0,0.783470442343,0.0,0.0,0.0,0
2011-07-19 11:15:01,0.0245068714249,0,0.76533761822,0.0,0.0,0.0,0
2011-07-19 12:15:01,0.0268183847596,0,0.741814429041,0.0,0.0,0.0,0
2011-07-19 13:15:01,0.0220626844873,0,0.722853186113,0.0,0.0,0.0,0
2011-07-19 14:15:01,0.0170479486042,0,0.708350499131,0.0,0.0,0.0,0
2011-07-19 15:15:01,0.0128550635707,0,0.695658993776,0.0,0.0,0.0,0
2011-07-19 16:15:01,0.0680429115961,0,0.613984308583,0.0,0.0,0.0,0
2011-07-19 17:15:01,0.00750620947254,0,0.610055969504,0.0,0.0,0.0,0
2011-07-19 18:15:01,0.00956803766772,0,0.606668905226,0.0,0.0,0.0,0
2011-07-19 19:15:01,0.00508361238855,0,0.618556134679,0.0,0.0,0.0,0
2011-07-19 20:15:01,0.00799682916264,0,0.632462727679,0.0,0.0,0.0,0
2011-07-19 21:15:01,0.0061442469595,0,0.655958509488,0.0,0.0,0.0,0
2011-07-19 22:15:01,0.00663084603856,0,0.681108713088,0.0,0.0,0.0,0
2011-07-19 23:15:01,0.00776878429269,0,0.698433497366,0.0,0.0,0.0,0
2011-07-20 00:15:01,0.00597497244819,0,0.711555832256,0.0,0.0,0.0,0
2011-07-20 01:15:01,0.00819610067736,0,0.716995458467,0.0,0.0,0.0,0
2011-07-20 02:15:01,0.00481455957828,0,0.785564756124,0.0,0.0,0.0,0
2011-07-20 03:15:01,0.00428340472,0,0.788780256487,0.0,0.0,0.0,0
2011-07-20 04:15:01,0.00375015319862,0,0.794512880625,0.0,0.0,0.0,0
2011-07-20 05:15:01,0.00247543996615,0,0.797052546882,0.0,0.0,0.0,0
2011-07-20 06:15:01,0.00227645961246,0,0.802556605454,0.0,0.0,0.0,0
2011-07-20 07:15:01,0.00412906795184,0,0.804473877793,0.0,0.0,0.0,0
2011-07-20 08:15:01,0.00591808020673,0,0.80514929839,0.0,0.0,0.0,0
2011-07-20 09:15:01,0.0110927361715,0,0.801987384076,0.0,0.0,0.0,0
2011-07-20 10:15:01,0.0168922332035,0,0.791386351053,0.0,0.0,0.0,0
2011-07-20 11:15:01,0.020675709656,0,0.778867488047,0.0,0.0,0.0,0
2011-07-20 12:15:01,0.0238082916829,0,0.759013021914,0.0,0.0,0.0,0
2011-07-20 13:15:01,0.0195366810226,0,0.742391809148,0.0,0.0,0.0,0
2011-07-20 14:15:01,0.0142127483489,0,0.730656007423,0.0,0.0,0.0,0
2011-07-20 15:15:01,0.0122124677822,0,0.719498346425,0.0,0.0,0.0,0
2011-07-20 16:15:01,0.0113374705221,0,0.708918388345,0.0,0.0,0.0,0
2011-07-20 17:15:01,0.0104141452104,0,0.701471937328,0.0,0.0,0.0,0
2011-07-20 18:15:01,0.0113462051725,0,0.694971913129,0.0,0.0,0.0,0
2011-07-20 19:15:01,0.0169957594864,0,0.687832778505,0.0,0.0,0.0,0
2011-07-20 20:15:01,0.010886464291,0,0.695095529956,0.0,0.0,0.0,0
2011-07-20 21:15:01,0.00339620207101,0,0.715559625088,0.0,0.0,0.0,0
2011-07-20 22:15:01,0.00758775169935,0,0.734151487611,0.0,0.0,0.0,0
2011-07-20 23:15:01,0.00687454431168,0,0.748224045342,0.0,0.0,0.0,0
2011-07-21 00:15:01,0.00522332555958,0,0.757970726506,0.0,0.0,0.0,0
2011-07-21 01:15:01,0.00569079967581,0,0.764911638758,0.0,0.0,0.0,0
2011-07-21 02:15:01,0.00418301567458,0,0.772397836697,0.0,0.0,0.0,0
2011-07-21 03:15:01,0.00431796597632,0,0.778669350904,0.0,0.0,0.0,0
2011-07-21 04:15:01,0.00384282126456,0,0.786251124412,0.0,0.0,0.0,0
2011-07-21 05:15:01,0.00229668193706,0,0.800657353525,0.0,0.0,0.0,0
2011-07-21 06:15:01,0.00248484842216,0,0.808622345054,0.0,0.0,0.0,0
2011-07-21 07:15:01,0.00310805016562,0,0.808892016986,0.0,0.0,0.0,0
2011-07-21 08:15:01,0.00374753944111,0,0.812463664681,0.0,0.0,0.0,0
2011-07-21 09:15:01,0.00645086970203,0,0.812855167417,0.0,0.0,0.0,0
2011-07-21 10:15:01,0.0102444867429,0,0.808182810169,0.0,0.0,0.0,0
2011-07-21 11:15:01,0.0161478624719,0,0.798225526612,0.0,0.0,0.0,0
2011-07-21 12:15:01,0.0183653542191,0,0.784237279826,0.0,0.0,0.0,0
2011-07-21 13:15:01,0.0153856234615,0,0.772940885784,0.0,0.0,0.0,0
2011-07-21 14:15:01,0.0124462362187,0,0.763934037544,0.0,0.0,0.0,0
2011-07-21 15:15:01,0.0101855807252,0,0.755505126319,0.0,0.0,0.0,0
2011-07-21 16:15:01,0.00917127561502,0,0.748235965988,0.0,0.0,0.0,0
2011-07-21 17:15:01,0.00764246268056,0,0.743242201324,0.0,0.0,0.0,0
2011-07-21 18:15:01,0.0086713943796,0,0.737761718336,0.0,0.0,0.0,0
2011-07-21 19:15:01,0.00797155454103,0,0.736057092769,0.0,0.0,0.0,0
2011-07-21 20:15:01,0.00788891896287,0,0.738695184006,0.0,0.0,0.0,0
2011-07-21 21:15:01,0.0055013757296,0,0.750447356543,0.0,0.0,0.0,0
2011-07-21 22:15:01,0.00757235151036,0,0.829705858502,0.0,0.0,0.0,0
2011-07-21 23:15:01,0.00881192139469,0,0.837242036315,0.0,0.0,0.0,0
2011-07-22 00:15:01,0.00761809326795,0,0.842636749541,0.0,0.0,0.0,0
2011-07-22 01:15:01,0.00628843952891,0,0.846904491979,0.0,0.0,0.0,0
2011-07-22 02:15:01,0.00536656782871,0,0.850996317092,0.0,0.0,0.0,0
2011-07-22 03:15:01,0.00399029980818,0,0.854854742307,0.0,0.0,0.0,0
2011-07-22 04:15:01,0.00407277937401,0,0.85961663636,0.0,0.0,0.0,0