timestamp,value,is_anomaly,anomaly_score,S(t)_reward_low_FP_rate,S(t)_reward_low_FN_rate,S(t)_standard,predicted_anomaly
2011-07-01 00:15:01,0.0641242208743,0,0.5,0.0,0.0,0.0,0
2011-07-01 01:15:01,0.029283335867,0,0.5,0.0,0.0,0.0,0
2011-07-01 02:15:01,0.039287709244,0,0.5,0.0,0.0,0.0,0
2011-07-01 03:15:01,0.0389742316273,0,0.5,0.0,0.0,0.0,0
2011-07-01 04:15:01,0.0392590587884,0,0.5,0.0,0.0,0.0,0
2011-07-01 05:15:01,0.0395335232773,0,0.5,0.0,0.0,0.0,0
2011-07-01 06:15:01,0.037723586607,0,0.5,0.0,0.0,0.0,0
2011-07-01 07:15:01,0.0426705921806,0,0.5,0.0,0.0,0.0,0
2011-07-01 08:15:01,0.0353414489212,0,0.5,0.0,0.0,0.0,0
2011-07-01 09:15:01,0.0495120210475,0,0.5,0.0,0.0,0.0,0
2011-07-01 10:15:01,0.0616744726541,0,0.5,0.0,0.0,0.0,0
2011-07-01 11:15:01,0.107473804005,0,0.5,0.0,0.0,0.0,0
2011-07-01 12:15:01,0.110397734418,0,0.5,0.0,0.0,0.0,0
2011-07-01 13:15:01,0.0907988355925,0,0.5,0.0,0.0,0.0,0
2011-07-01 14:15:01,0.0954615374595,0,0.5,0.0,0.0,0.0,0
2011-07-01 15:15:01,0.0503197999558,0,0.5,0.0,0.0,0.0,0
2011-07-01 16:15:01,0.0627827613525,0,0.5,0.0,0.0,0.0,0
2011-07-01 17:15:01,0.0460973050306,0,0.5,0.0,0.0,0.0,0
2011-07-01 18:15:01,0.0384521636123,0,0.5,0.0,0.0,0.0,0
2011-07-01 19:15:01,0.0551730386502,0,0.5,0.0,0.0,0.0,0
2011-07-01 20:15:01,0.140753471514,0,0.5,0.0,0.0,0.0,0
2011-07-01 21:15:01,0.019610582795,0,0.5,0.0,0.0,0.0,0
2011-07-01 22:15:01,0.279129191768,0,0.5,0.0,0.0,0.0,0
2011-07-01 23:15:01,0.549316384647,0,0.5,0.0,0.0,0.0,0
2011-07-02 00:15:01,0.504177333475,0,0.5,0.0,0.0,0.0,0
2011-07-02 01:15:01,0.119021244227,0,0.5,0.0,0.0,0.0,0
2011-07-02 02:15:01,0.0743242134347,0,0.5,0.0,0.0,0.0,0
2011-07-02 03:15:01,0.0973982271341,0,0.5,0.0,0.0,0.0,0
2011-07-02 04:15:01,0.10284042187,0,0.5,0.0,0.0,0.0,0
2011-07-02 05:15:01,0.0954984467675,0,0.5,0.0,0.0,0.0,0
2011-07-02 06:15:01,0.102140227075,0,0.5,0.0,0.0,0.0,0
2011-07-02 07:15:01,0.125694249836,0,0.5,0.0,0.0,0.0,0
2011-07-02 08:15:01,0.0957025235416,0,0.5,0.0,0.0,0.0,0
2011-07-02 09:15:01,0.117652618354,0,0.5,0.0,0.0,0.0,0
2011-07-02 10:15:01,0.117186341511,0,0.5,0.0,0.0,0.0,0
2011-07-02 11:15:01,0.179225527733,0,0.5,0.0,0.0,0.0,0
2011-07-02 12:15:01,0.326783648323,0,0.5,0.0,0.0,0.0,0
2011-07-02 13:15:01,0.266323355682,0,0.5,0.0,0.0,0.0,0
2011-07-02 14:15:01,0.131115613902,0,0.5,0.0,0.0,0.0,0
2011-07-02 15:15:01,0.172091260054,0,0.5,0.0,0.0,0.0,0
2011-07-02 16:15:01,0.10438257608,0,0.5,0.0,0.0,0.0,0
2011-07-02 17:15:01,0.0939013950184,0,0.5,0.0,0.0,0.0,0
2011-07-02 18:15:01,0.17960914146,0,0.5,0.0,0.0,0.0,0
2011-07-02 19:15:01,0.0873631492023,0,0.5,0.0,0.0,0.0,0
2011-07-02 20:15:01,0.0826311190838,0,0.5,0.0,0.0,0.0,0
2011-07-02 21:15:01,0.108223221754,0,0.5,0.0,0.0,0.0,0
2011-07-02 22:15:01,0.0978454316318,0,0.5,0.0,0.0,0.0,0
2011-07-02 23:15:01,0.249594217618,0,0.5,0.0,0.0,0.0,0
2011-07-03 00:15:01,0.224693239795,0,0.5,0.0,0.0,0.0,0
2011-07-03 01:15:01,0.139265008071,0,0.5,0.0,0.0,0.0,0
2011-07-03 02:15:01,0.125974083578,0,0.5,0.0,0.0,0.0,0
2011-07-03 03:15:01,0.0557730179809,0,0.5,0.0,0.0,0.0,0
2011-07-03 04:15:01,0.108991049994,0,0.5,0.0,0.0,0.0,0
2011-07-03 05:15:01,0.109427579332,0,0.5,0.0,0.0,0.0,0
2011-07-03 06:15:01,0.120874998766,0,0.5,0.0,0.0,0.0,0
2011-07-03 07:15:01,0.140805359447,0,0.5,0.0,0.0,0.0,0
2011-07-03 08:15:01,0.119749174667,0,0.5,0.0,0.0,0.0,0
2011-07-03 09:15:01,0.126215260015,0,0.5,0.0,0.0,0.0,0
2011-07-03 10:15:01,0.172122927795,0,0.5,0.0,0.0,0.0,0
2011-07-03 11:15:01,0.324197727526,0,0.5,0.0,0.0,0.0,0
2011-07-03 12:15:01,0.359102766347,0,0.5,0.0,0.0,0.0,0
2011-07-03 13:15:01,0.273239712085,0,0.5,0.0,0.0,0.0,0
2011-07-03 14:15:01,0.125122000723,0,0.5,0.0,0.0,0.0,0
2011-07-03 15:15:01,0.194883236603,0,0.5,0.0,0.0,0.0,0
2011-07-03 16:15:01,0.111679981469,0,0.5,0.0,0.0,0.0,0
2011-07-03 17:15:01,0.114898672582,0,0.5,0.0,0.0,0.0,0
2011-07-03 18:15:01,0.0911233933907,0,0.5,0.0,0.0,0.0,0
2011-07-03 19:15:01,0.121401937223,0,0.5,0.0,0.0,0.0,0
2011-07-03 20:15:01,0.0861155747803,0,0.5,0.0,0.0,0.0,0
2011-07-03 21:15:01,0.11909488666,0,0.5,0.0,0.0,0.0,0
2011-07-03 22:15:01,0.150223410836,0,0.5,0.0,0.0,0.0,0
2011-07-03 23:15:01,0.131956542589,0,0.5,0.0,0.0,0.0,0
2011-07-04 00:15:01,0.232012747467,0,0.5,0.0,0.0,0.0,0
2011-07-04 01:15:01,0.139363692547,0,0.5,0.0,0.0,0.0,0
2011-07-04 02:15:01,0.0655484779668,0,0.5,0.0,0.0,0.0,0
2011-07-04 03:15:01,0.100480827186,0,0.5,0.0,0.0,0.0,0
2011-07-04 04:15:01,0.117793766725,0,0.5,0.0,0.0,0.0,0
2011-07-04 05:15:01,0.110975038332,0,0.5,0.0,0.0,0.0,0
2011-07-04 06:15:01,0.101023436684,0,0.5,0.0,0.0,0.0,0
2011-07-04 07:15:01,0.127056918184,0,0.5,0.0,0.0,0.0,0
2011-07-04 08:15:01,0.128629316928,0,0.5,0.0,0.0,0.0,0
2011-07-04 09:15:01,0.110378906032,0,0.5,0.0,0.0,0.0,0
2011-07-04 10:15:01,0.168346910866,0,0.5,0.0,0.0,0.0,0
2011-07-04 11:15:01,0.391469606549,0,0.5,0.0,0.0,0.0,0
2011-07-04 12:15:01,0.395695856076,0,0.5,0.0,0.0,0.0,0
2011-07-04 13:15:01,0.330597411042,0,0.5,0.0,0.0,0.0,0
2011-07-04 14:15:01,0.235520236242,0,0.5,0.0,0.0,0.0,0
2011-07-04 15:15:01,0.178658690189,0,0.5,0.0,0.0,0.0,0
2011-07-04 16:15:01,0.0734780815737,0,0.5,0.0,0.0,0.0,0
2011-07-04 17:15:01,0.0630896734562,0,0.5,0.0,0.0,0.0,0
2011-07-04 18:15:01,0.0539517322709,0,0.5,0.0,0.0,0.0,0
2011-07-04 19:15:01,0.0509000535249,0,0.5,0.0,0.0,0.0,0
2011-07-04 20:15:01,0.0774698741111,0,0.5,0.0,0.0,0.0,0
2011-07-04 21:15:01,0.0449260508333,0,0.5,0.0,0.0,0.0,0
2011-07-04 22:15:01,0.0914016011943,0,0.5,0.0,0.0,0.0,0
2011-07-04 23:15:01,0.165419582213,0,0.5,0.0,0.0,0.0,0
2011-07-05 00:15:01,0.179568550636,0,0.5,0.0,0.0,0.0,0
2011-07-05 01:15:01,0.0756748825087,0,0.5,0.0,0.0,0.0,0
2011-07-05 02:15:01,0.0626227534602,0,0.5,0.0,0.0,0.0,0
2011-07-05 03:15:01,0.0453981271476,0,0.5,0.0,0.0,0.0,0
2011-07-05 04:15:01,0.0604804694644,0,0.5,0.0,0.0,0.0,0
2011-07-05 05:15:01,0.0555617466971,0,0.5,0.0,0.0,0.0,0
2011-07-05 06:15:01,0.0653951201362,0,0.5,0.0,0.0,0.0,0
2011-07-05 07:15:01,0.066100085475,0,0.5,0.0,0.0,0.0,0
2011-07-05 08:15:01,0.058840029072,0,0.5,0.0,0.0,0.0,0
2011-07-05 09:15:01,0.0532652046775,0,0.5,0.0,0.0,0.0,0
2011-07-05 10:15:01,0.119348158474,0,0.5,0.0,0.0,0.0,0
2011-07-05 11:15:01,0.128790902907,0,0.5,0.0,0.0,0.0,0
2011-07-05 12:15:01,0.197549141502,0,0.5,0.0,0.0,0.0,0
2011-07-05 13:15:01,0.174138530839,0,0.5,0.0,0.0,0.0,0
2011-07-05 14:15:01,0.074207540948,0,0.5,0.0,0.0,0.0,0
2011-07-05 15:15:01,0.109367263005,0,0.5,0.0,0.0,0.0,0
2011-07-05 16:15:01,0.0812623027049,0,0.5,0.0,0.0,0.0,0
2011-07-05 17:15:01,0.0481099561393,0,0.5,0.0,0.0,0.0,0
2011-07-05 18:15:01,0.0890981844315,0,0.5,0.0,0.0,0.0,0
2011-07-05 19:15:01,0.0591907674258,0,0.5,0.0,0.0,0.0,0
2011-07-05 20:15:01,0.0756418443116,0,0.5,0.0,0.0,0.0,0
2011-07-05 21:15:01,0.0674270341835,0,0.5,0.0,0.0,0.0,0
2011-07-05 22:15:01,0.0472277843586,0,0.5,0.0,0.0,0.0,0
2011-07-05 23:15:01,0.122534764844,0,0.5,0.0,0.0,0.0,0
2011-07-06 00:15:01,0.154012859106,0,0.5,0.0,0.0,0.0,0
2011-07-06 01:15:01,0.0693124039095,0,0.5,0.0,0.0,0.0,0
2011-07-06 02:15:01,0.0445845123465,0,0.5,0.0,0.0,0.0,0
2011-07-06 03:15:01,0.0532032866704,0,0.5,0.0,0.0,0.0,0
2011-07-06 04:15:01,0.0609794505509,0,0.5,0.0,0.0,0.0,0
2011-07-06 05:15:01,0.0546387948604,0,0.5,0.0,0.0,0.0,0
2011-07-06 06:15:01,0.0630010819981,0,0.5,0.0,0.0,0.0,0
2011-07-06 07:15:01,0.0534740535168,0,0.5,0.0,0.0,0.0,0
2011-07-06 08:15:01,0.08860680713,0,0.5,0.0,0.0,0.0,0
2011-07-06 09:15:01,0.0986825498725,0,0.5,0.0,0.0,0.0,0
2011-07-06 10:15:01,0.0799136899917,0,0.5,0.0,0.0,0.0,0
2011-07-06 11:15:01,0.105959072696,0,0.5,0.0,0.0,0.0,0
2011-07-06 12:15:01,0.0395838376114,0,0.5,0.0,0.0,0.0,0
2011-07-06 13:15:01,0.18229539455,0,0.5,0.0,0.0,0.0,0
2011-07-06 14:15:01,0.126419917836,0,0.5,0.0,0.0,0.0,0
2011-07-06 15:15:01,0.0699066621993,0,0.5,0.0,0.0,0.0,0
2011-07-06 16:15:01,0.0641524021551,0,0.5,0.0,0.0,0.0,0
2011-07-06 17:15:01,0.0643771736303,0,0.5,0.0,0.0,0.0,0
2011-07-06 18:15:01,0.0847274651196,0,0.5,0.0,0.0,0.0,0
2011-07-06 19:15:01,0.0744855369098,0,0.5,0.0,0.0,0.0,0
2011-07-06 20:15:01,0.0455782095075,0,0.5,0.0,0.0,0.0,0
2011-07-06 21:15:01,0.0719374844682,0,0.5,0.0,0.0,0.0,0
2011-07-06 22:15:01,0.0749231249641,0,0.5,0.0,0.0,0.0,0
2011-07-06 23:15:01,0.0783191169775,0,0.5,0.0,0.0,0.0,0
2011-07-07 00:15:01,0.0586544255283,0,0.5,0.0,0.0,0.0,0
2011-07-07 01:15:01,0.0666066010526,0,0.5,0.0,0.0,0.0,0
2011-07-07 02:15:01,0.0640097556486,0,0.5,0.0,0.0,0.0,0
2011-07-07 05:15:01,0.0690268058491,0,0.5,0.0,0.0,0.0,0
2011-07-07 06:15:01,0.0517199547685,0,0.5,0.0,0.0,0.0,0
2011-07-07 07:15:01,0.0890253693264,0,0.5,0.0,0.0,0.0,0
2011-07-07 08:15:01,0.0599820397767,0,0.5,0.0,0.0,0.0,0
2011-07-07 09:15:01,0.0980258103215,0,0.5,0.0,0.0,0.0,0
2011-07-07 10:15:01,0.102187962524,0,0.5,0.0,0.0,0.0,0
2011-07-07 11:15:01,0.150244822172,0,0.5,0.0,0.0,0.0,0
2011-07-07 12:15:01,0.245355057463,0,0.5,0.0,0.0,0.0,0
2011-07-07 13:15:01,0.213410988098,0,0.5,0.0,0.0,0.0,0
2011-07-07 14:15:01,0.155116362945,0,0.5,0.0,0.0,0.0,0
2011-07-07 15:15:01,0.101906864672,0,0.5,0.0,0.0,0.0,0
2011-07-07 16:15:01,0.0936779299942,0,0.5,0.0,0.0,0.0,0
2011-07-07 17:15:01,0.0789946694571,0,0.5,0.0,0.0,0.0,0
2011-07-07 18:15:01,0.0836087480743,0,0.5,0.0,0.0,0.0,0
2011-07-07 19:15:01,0.134589255424,0,0.5,0.0,0.0,0.0,0
2011-07-07 20:15:01,0.17056095212,0,0.5,0.0,0.0,0.0,0
2011-07-07 21:15:01,0.100729406622,0,0.5,0.0,0.0,0.0,0
2011-07-07 22:15:01,0.139843217804,0,0.5,0.0,0.0,0.0,0
2011-07-07 23:15:01,0.0710617596467,0,0.5,0.0,0.0,0.0,0
2011-07-08 00:15:01,0.0482957880336,0,0.5,0.0,0.0,0.0,0
2011-07-08 01:15:01,0.0964454186515,0,0.5,0.0,0.0,0.0,0
2011-07-08 02:15:01,0.0831476376315,0,0.5,0.0,0.0,0.0,0
2011-07-08 06:15:01,0.0941136024362,0,0.5,0.0,0.0,0.0,0
2011-07-08 09:15:01,0.105358967661,0,0.5,0.0,0.0,0.0,0
2011-07-08 10:15:01,0.078831353475,0,0.5,0.0,0.0,0.0,0
2011-07-08 14:15:01,0.151559613845,0,0.5,0.0,0.0,0.0,0
2011-07-08 16:15:01,0.567710404137,0,0.5,0.0,0.0,0.0,0
2011-07-08 17:15:01,0.13729779775,0,0.5,0.0,0.0,0.0,0
2011-07-08 18:15:01,0.0913858709482,0,0.5,0.0,0.0,0.0,0
2011-07-08 19:15:01,0.147759493014,0,0.5,0.0,0.0,0.0,0
2011-07-08 20:15:01,0.199535729047,0,0.5,0.0,0.0,0.0,0
2011-07-08 21:15:01,0.168640474654,0,0.5,0.0,0.0,0.0,0
2011-07-08 22:15:01,0.0895522006337,0,0.5,0.0,0.0,0.0,0
2011-07-08 23:15:01,0.173869847165,0,0.5,0.0,0.0,0.0,0
2011-07-09 09:15:01,0.308393173536,0,0.5,0.0,0.0,0.0,0
2011-07-09 15:15:01,0.0954869984922,0,0.5,0.0,0.0,0.0,0
2011-07-09 17:15:01,0.112007607416,0,0.5,0.0,0.0,0.0,0
2011-07-09 18:15:01,0.165021431625,0,0.5,0.0,0.0,0.0,0
2011-07-09 19:15:01,0.0916285701496,0,0.5,0.0,0.0,0.0,0
2011-07-09 20:15:01,0.12937539214,0,0.5,0.0,0.0,0.0,0
2011-07-09 21:15:01,0.074793657777,0,0.5,0.0,0.0,0.0,0
2011-07-09 22:15:01,0.168913366036,0,0.5,0.0,0.0,0.0,0
2011-07-09 23:15:01,0.207336990479,0,0.5,0.0,0.0,0.0,0
2011-07-10 00:15:01,0.180984048172,0,0.5,0.0,0.0,0.0,0
2011-07-10 01:15:01,0.13720744246,0,0.5,0.0,0.0,0.0,0
2011-07-10 02:15:01,0.121673600045,0,0.5,0.0,0.0,0.0,0
2011-07-10 03:15:01,0.0642637071041,0,0.5,0.0,0.0,0.0,0
2011-07-10 04:15:01,0.0950949427177,0,0.5,0.0,0.0,0.0,0
2011-07-10 05:15:01,0.09235186706,0,0.5,0.0,0.0,0.0,0
2011-07-10 06:15:01,0.103968971083,0,0.5,0.0,0.0,0.0,0
2011-07-10 07:15:01,0.0800803034265,0,0.5,0.0,0.0,0.0,0
2011-07-10 08:15:01,0.198806593086,0,0.5,0.0,0.0,0.0,0
2011-07-10 09:15:01,0.218131282749,0,0.5,0.0,0.0,0.0,0
2011-07-10 10:15:01,0.162644190131,0,0.5,0.0,0.0,0.0,0
2011-07-10 11:15:01,0.221574366531,0,0.5,0.0,0.0,0.0,0
2011-07-10 12:15:01,0.274056617205,0,0.5,0.0,0.0,0.0,0
2011-07-10 13:15:01,0.280317522455,0,0.5,0.0,0.0,0.0,0
2011-07-10 14:15:01,0.201456478012,0,0.5,0.0,0.0,0.0,0
2011-07-10 15:15:01,0.226838568175,0,0.5,0.0,0.0,0.0,0
2011-07-10 16:15:01,0.20287277295,0,0.5,0.0,0.0,0.0,0
2011-07-10 17:15:01,0.190589035883,0,0.5,0.0,0.0,0.0,0
2011-07-10 18:15:01,0.119647286193,0,0.5,0.0,0.0,0.0,0
2011-07-10 19:15:01,0.105400854594,0,0.5,0.0,0.0,0.0,0
2011-07-10 20:15:01,0.109649256273,0,0.5,0.0,0.0,0.0,0
2011-07-10 21:15:01,0.122607337178,0,0.5,0.0,0.0,0.0,0
2011-07-10 22:15:01,0.106972973176,0,0.5,0.0,0.0,0.0,0
2011-07-10 23:15:01,0.117622488971,0,0.5,0.0,0.0,0.0,0
2011-07-11 00:15:01,0.0978781106734,0,0.5,0.0,0.0,0.0,0
2011-07-11 01:15:01,0.125874562266,0,0.5,0.0,0.0,0.0,0
2011-07-11 02:15:01,0.0856695624861,0,0.5,0.0,0.0,0.0,0
2011-07-11 03:15:01,0.103550775887,0,0.5,0.0,0.0,0.0,0
2011-07-11 04:15:01,0.0980757280639,0,0.5,0.0,0.0,0.0,0
2011-07-11 05:15:01,0.10851402187,0,0.5,0.0,0.0,0.0,0
2011-07-11 06:15:01,0.103906090843,0,0.5,0.0,0.0,0.0,0
2011-07-11 07:15:01,0.119405077753,0,0.5,0.0,0.0,0.0,0
2011-07-11 08:15:01,0.100066483208,0,0.5,0.0,0.0,0.0,0
2011-07-11 09:15:01,0.0977502286107,0,0.5,0.0,0.0,0.0,0
2011-07-11 10:15:01,0.237361991816,0,0.5,0.0,0.0,0.0,0
2011-07-11 11:15:01,0.395538836863,0,0.5,0.0,0.0,0.0,0
2011-07-11 12:15:01,0.295940751526,0,0.5,0.0,0.0,0.0,0
2011-07-11 13:15:01,0.279414405411,0,0.5,0.0,0.0,0.0,0
2011-07-11 14:15:01,0.263905613666,0,0.5,0.0,0.0,0.0,0
2011-07-11 15:15:01,0.157062213854,0,0.5,0.0,0.0,0.0,0
2011-07-11 16:15:01,0.121045279789,0,0.5,0.0,0.0,0.0,0
2011-07-11 17:15:01,0.106820923328,0,0.5,0.0,0.0,0.0,0
2011-07-11 18:15:01,0.0557528079534,0,0.5,0.0,0.0,0.0,0
2011-07-11 19:15:01,0.05498870933,0,0.5,0.0,0.0,0.0,0
2011-07-11 20:15:01,0.05688977603,0,0.5,0.0,0.0,0.0,0
2011-07-11 21:15:01,0.0488553328059,0,0.5,0.0,0.0,0.0,0
2011-07-11 22:15:01,0.0632985663446,0,0.5,0.0,0.0,0.0,0
2011-07-11 23:15:01,0.0546404094767,0,0.5,0.0,0.0,0.0,0
2011-07-12 00:15:01,0.0414913906669,0,0.5,0.0,0.0,0.0,0
2011-07-12 01:15:01,0.0688617035531,0,0.5,0.0,0.0,0.0,0
2011-07-12 02:15:01,0.0836404488395,0,0.5,0.0,0.0,0.0,0
2011-07-12 03:15:01,0.0801119551766,0,0.5,0.0,0.0,0.0,0
2011-07-12 04:15:01,0.0829813128889,0,0.5,0.0,0.0,0.0,0
2011-07-12 05:15:01,0.0837507443313,0,0.5,0.0,0.0,0.0,0
2011-07-12 06:15:01,0.0916322897936,0,0.5,0.0,0.0,0.0,0
2011-07-12 07:15:01,0.0808677266881,0,0.5,0.0,0.0,0.0,0
2011-07-12 08:15:01,0.154229352623,0,0.5,0.0,0.0,0.0,0
2011-07-12 09:15:01,0.115847777457,0,0.5,0.0,0.0,0.0,0
2011-07-12 10:15:01,0.117818030832,0,0.5,0.0,0.0,0.0,0
2011-07-12 11:15:01,0.115176020442,0,0.5,0.0,0.0,0.0,0
2011-07-12 12:15:01,0.178626936215,0,0.5,0.0,0.0,0.0,0
2011-07-12 13:15:01,0.0906678368425,0,0.5,0.0,0.0,0.0,0
2011-07-12 14:15:01,0.190829500495,0,0.5,0.0,0.0,0.0,0
2011-07-12 15:15:01,0.122713694531,0,0.5,0.0,0.0,0.0,0
2011-07-12 16:15:01,0.114280537931,0,0.5,0.0,0.0,0.0,0
2011-07-12 17:15:01,0.11464148695,0,0.5,0.0,0.0,0.0,0
2011-07-12 18:15:01,0.0943194490202,0,0.5,0.0,0.0,0.0,0
2011-07-12 19:15:01,0.0915139482886,0,0.5,0.0,0.0,0.0,0
2011-07-12 20:15:01,0.115211568559,0,0.5,0.0,0.0,0.0,0
2011-07-12 21:15:01,0.12924667965,0,0.5,0.0,0.0,0.0,0
2011-07-12 22:15:01,0.116178614425,0,0.5,0.0,0.0,0.0,0
2011-07-12 23:15:01,0.0739757433861,0,0.5,0.0,0.0,0.0,0
2011-07-13 00:15:01,0.109652507693,0,0.5,0.0,0.0,0.0,0
2011-07-13 01:15:01,0.131497245737,0,0.5,0.0,0.0,0.0,0
2011-07-13 02:15:01,0.111930986557,0,0.5,0.0,0.0,0.0,0
2011-07-13 03:15:01,0.0954381532086,0,0.5,0.0,0.0,0.0,0
2011-07-13 04:15:01,0.0937300369855,0,0.5,0.0,0.0,0.0,0
2011-07-13 05:15:01,0.0910266129952,0,0.5,0.0,0.0,0.0,0
2011-07-13 06:15:01,0.100722483445,0,0.5,0.0,0.0,0.0,0
2011-07-13 07:15:01,0.112667342302,0,0.5,0.0,0.0,0.0,0
2011-07-13 08:15:01,0.13728570423,0,0.5,0.0,0.0,0.0,0
2011-07-13 09:15:01,0.137734539508,1,0.5,-1.0,-2.0,-1.0,0
2011-07-13 10:15:01,0.13099712461,1,0.5,0.0,0.0,0.0,0
2011-07-13 11:15:01,0.190652149477,1,0.5,0.0,0.0,0.0,0
2011-07-13 12:15:01,0.220353218041,1,0.5,0.0,0.0,0.0,0
2011-07-13 13:15:01,0.17539280744,1,0.5,0.0,0.0,0.0,0
2011-07-13 14:15:01,0.0672879285351,1,0.5,0.0,0.0,0.0,0
2011-07-13 15:15:01,0.1197216569,1,0.5,0.0,0.0,0.0,0
2011-07-13 16:15:01,0.102541928088,1,0.5,0.0,0.0,0.0,0
2011-07-13 17:15:01,0.111834813683,1,0.5,0.0,0.0,0.0,0
2011-07-13 18:15:01,0.0944153481766,1,0.5,0.0,0.0,0.0,0
2011-07-13 19:15:01,0.0999567631813,1,0.5,0.0,0.0,0.0,0
2011-07-13 20:15:01,0.113165817241,1,0.5,0.0,0.0,0.0,0
2011-07-13 21:15:01,0.121031336787,1,0.5,0.0,0.0,0.0,0
2011-07-13 22:15:01,0.0833447135252,1,0.5,0.0,0.0,0.0,0
2011-07-13 23:15:01,0.107085543777,1,0.5,0.0,0.0,0.0,0
2011-07-14 00:15:01,0.0927179249317,1,0.5,0.0,0.0,0.0,0
2011-07-14 01:15:01,0.0816503989633,1,0.5,0.0,0.0,0.0,0
2011-07-14 02:15:01,0.065695478079,1,0.5,0.0,0.0,0.0,0
2011-07-14 03:15:01,0.0596050846869,1,0.5,0.0,0.0,0.0,0
2011-07-14 04:15:01,0.0583140269668,1,0.5,0.0,0.0,0.0,0
2011-07-14 05:15:01,0.0591905188997,1,0.5,0.0,0.0,0.0,0
2011-07-14 06:15:01,0.0556479567784,1,0.5,0.0,0.0,0.0,0
2011-07-14 07:15:01,0.0986990153031,1,0.5,0.0,0.0,0.0,0
2011-07-14 08:15:01,0.0719087639528,1,0.5,0.0,0.0,0.0,0
2011-07-14 09:15:01,0.0941455583825,1,0.5,0.0,0.0,0.0,0
2011-07-14 10:15:01,0.870751446414,1,0.5,0.0,0.0,0.0,0
2011-07-14 11:15:01,0.894507599045,1,0.5,0.0,0.0,0.0,0
2011-07-14 12:15:01,0.0419353296742,1,0.5,0.0,0.0,0.0,0
2011-07-14 13:15:01,0.196417353356,1,0.5,0.0,0.0,0.0,0
2011-07-14 14:15:01,0.181488718189,1,0.5,0.0,0.0,0.0,0
2011-07-14 15:15:01,0.070649708514,1,0.5,0.0,0.0,0.0,0
2011-07-14 16:15:01,0.103104503461,1,0.5,0.0,0.0,0.0,0
2011-07-14 17:15:01,0.102595710226,1,0.5,0.0,0.0,0.0,0
2011-07-14 18:15:01,0.0712737627054,1,0.5,0.0,0.0,0.0,0
2011-07-14 19:15:01,0.0667942207378,1,0.5,0.0,0.0,0.0,0
2011-07-14 20:15:01,0.0774217346773,1,0.5,0.0,0.0,0.0,0
2011-07-14 21:15:01,0.0621801743426,1,0.5,0.0,0.0,0.0,0
2011-07-14 22:15:01,0.0787896826591,1,0.5,0.0,0.0,0.0,0
2011-07-14 23:15:01,0.052786862353,1,0.5,0.0,0.0,0.0,0
2011-07-15 00:15:01,0.061378229178,1,0.5,0.0,0.0,0.0,0
2011-07-15 01:15:01,0.0857215247874,1,0.5,0.0,0.0,0.0,0
2011-07-15 02:15:01,0.0674524898901,1,0.5,0.0,0.0,0.0,0
2011-07-15 03:15:01,0.0642390037401,1,0.5,0.0,0.0,0.0,0
2011-07-15 04:15:01,0.0605428543807,1,0.5,0.0,0.0,0.0,0
2011-07-15 05:15:01,0.0552639080366,1,0.5,0.0,0.0,0.0,0
2011-07-15 06:15:01,0.0734121629293,1,0.5,0.0,0.0,0.0,0
2011-07-15 07:15:01,0.0589415429956,1,0.5,0.0,0.0,0.0,0
2011-07-15 08:15:01,0.0753807243236,1,0.5,0.0,0.0,0.0,0
2011-07-15 09:15:01,0.0961612012648,1,0.5,0.0,0.0,0.0,0
2011-07-15 10:15:01,0.108240268148,1,0.5,0.0,0.0,0.0,0
2011-07-15 11:15:01,0.118191783816,1,0.5,0.0,0.0,0.0,0
2011-07-15 12:15:01,0.176620477225,0,0.5,0.0,0.0,0.0,0
2011-07-15 13:15:01,0.186090797013,0,0.5,0.0,0.0,0.0,0
2011-07-15 14:15:01,0.116021170758,0,0.5,0.0,0.0,0.0,0
2011-07-15 15:15:01,0.0714098472247,0,0.5,0.0,0.0,0.0,0
2011-07-15 16:15:01,0.0988963099345,0,0.5,0.0,0.0,0.0,0
2011-07-15 17:15:01,0.0705515090307,0,0.5,0.0,0.0,0.0,0
2011-07-15 18:15:01,0.0596743678691,0,0.5,0.0,0.0,0.0,0
2011-07-15 19:15:01,0.079033850681,0,0.5,0.0,0.0,0.0,0
2011-07-15 20:15:01,0.0503389206452,0,0.5,0.0,0.0,0.0,0
2011-07-15 21:15:01,0.0743644977324,0,0.5,0.0,0.0,0.0,0
2011-07-15 22:15:01,0.0628122509847,0,0.5,0.0,0.0,0.0,0
2011-07-15 23:15:01,0.0280416127601,0,0.5,0.0,0.0,0.0,0
2011-07-16 00:15:01,0.083280785792,0,0.5,0.0,0.0,0.0,0
2011-07-16 01:15:01,0.0932839949736,0,0.5,0.0,0.0,0.0,0
2011-07-16 02:15:01,0.0955259027753,0,0.5,0.0,0.0,0.0,0
2011-07-16 03:15:01,0.0790107984084,0,0.5,0.0,0.0,0.0,0
2011-07-16 04:15:01,0.0741346541788,0,0.5,0.0,0.0,0.0,0
2011-07-16 05:15:01,0.0586746842333,0,0.5,0.0,0.0,0.0,0
2011-07-16 06:15:01,0.0594167911704,0,0.5,0.0,0.0,0.0,0
2011-07-16 07:15:01,0.0532624172875,0,0.5,0.0,0.0,0.0,0
2011-07-16 08:15:01,0.0780613650611,0,0.5,0.0,0.0,0.0,0
2011-07-16 09:15:01,0.0903428302608,0,0.5,0.0,0.0,0.0,0
2011-07-16 10:15:01,0.130145796441,0,0.5,0.0,0.0,0.0,0
2011-07-16 11:15:01,0.14438422627,0,0.5,0.0,0.0,0.0,0
2011-07-16 12:15:01,0.151132867843,0,0.5,0.0,0.0,0.0,0
2011-07-16 13:15:01,0.200202306082,0,0.5,0.0,0.0,0.0,0
2011-07-16 14:15:01,0.0770698883739,0,0.5,0.0,0.0,0.0,0
2011-07-16 15:15:01,0.0685632012689,0,0.5,0.0,0.0,0.0,0
2011-07-16 16:15:01,0.102889488854,0,0.5,0.0,0.0,0.0,0
2011-07-16 17:15:01,0.056035107956,0,0.5,0.0,0.0,0.0,0
2011-07-16 18:15:01,0.0556102195827,0,0.5,0.0,0.0,0.0,0
2011-07-16 19:15:01,0.0888345005223,0,0.5,0.0,0.0,0.0,0
2011-07-16 22:15:01,0.0642077329633,0,0.5,0.0,0.0,0.0,0
2011-07-16 23:15:01,0.0744707705356,0,0.5,0.0,0.0,0.0,0
2011-07-17 00:15:01,0.0384006017641,0,0.5,0.0,0.0,0.0,0
2011-07-17 01:15:01,0.0823209013454,0,0.5,0.0,0.0,0.0,0
2011-07-17 02:15:01,0.084067889059,0,0.5,0.0,0.0,0.0,0
2011-07-17 03:15:01,0.0759579019719,0,0.5,0.0,0.0,0.0,0
2011-07-17 04:15:01,0.075779965248,0,0.5,0.0,0.0,0.0,0
2011-07-17 05:15:01,0.0607742946248,0,0.5,0.0,0.0,0.0,0
2011-07-17 06:15:01,0.0606113345456,0,0.5,0.0,0.0,0.0,0
2011-07-17 07:15:01,0.0600860234258,0,0.5,0.0,0.0,0.0,0
2011-07-17 08:15:01,0.0969652613185,0,0.5,0.0,0.0,0.0,0
2011-07-17 09:15:01,0.083351865977,0,0.5,0.0,0.0,0.0,0
2011-07-17 10:15:01,0.129055892736,0,0.5,0.0,0.0,0.0,0
2011-07-17 11:15:01,0.131746558686,0,0.5,0.0,0.0,0.0,0
2011-07-17 12:15:01,0.14572258815,0,0.5,0.0,0.0,0.0,0
2011-07-17 13:15:01,0.0941646812776,0,0.5,0.0,0.0,0.0,0
2011-07-17 14:15:01,0.12274101758,0,0.5,0.0,0.0,0.0,0
2011-07-17 15:15:01,0.139781724467,0,0.5,0.0,0.0,0.0,0
2011-07-17 16:15:01,0.0566305531043,0,0.5,0.0,0.0,0.0,0
2011-07-17 17:15:01,0.0894842073319,0,0.5,0.0,0.0,0.0,0
2011-07-17 18:15:01,0.0468027666744,0,0.5,0.0,0.0,0.0,0
2011-07-17 19:15:01,0.0755434980453,0,0.5,0.0,0.0,0.0,0
2011-07-17 20:15:01,0.07463544077,0,0.5,0.0,0.0,0.0,0
2011-07-17 21:15:01,0.0468545230897,0,0.5,0.0,0.0,0.0,0
2011-07-17 22:15:01,0.0701010553075,0,0.5,0.0,0.0,0.0,0
2011-07-17 23:15:01,0.0614967552255,0,0.5,0.0,0.0,0.0,0
2011-07-18 00:15:01,0.0363364108173,0,0.5,0.0,0.0,0.0,0
2011-07-18 01:15:01,0.074515748942,0,0.5,0.0,0.0,0.0,0
2011-07-18 02:15:01,0.0701275610552,0,0.5,0.0,0.0,0.0,0
2011-07-18 03:15:01,0.0689696807339,0,0.5,0.0,0.0,0.0,0
2011-07-18 04:15:01,0.0593939245195,0,0.5,0.0,0.0,0.0,0
2011-07-18 05:15:01,0.0538055628127,0,0.5,0.0,0.0,0.0,0
2011-07-18 06:15:01,0.0589926187416,0,0.5,0.0,0.0,0.0,0
2011-07-18 07:15:01,0.0621460709804,0,0.5,0.0,0.0,0.0,0
2011-07-18 08:15:01,0.103517515479,0,0.756191467429,0.0,0.0,0.0,0
2011-07-18 09:15:01,0.0951014184975,0,0.73524512812,0.0,0.0,0.0,0
2011-07-18 10:15:01,0.105165449023,0,0.68966682872,0.0,0.0,0.0,0
2011-07-18 11:15:01,0.130970699044,0,0.64992614161,0.0,0.0,0.0,0
2011-07-18 12:15:01,0.205779647492,0,0.548283288783,0.0,0.0,0.0,0
2011-07-18 13:15:01,0.150860697076,0,0.515125906137,0.0,0.0,0.0,0
2011-07-18 14:15:01,0.066765215583,0,0.52083871694,0.0,0.0,0.0,0
2011-07-18 15:15:01,0.127250161408,0,0.57733590834,0.0,0.0,0.0,0
2011-07-18 16:15:01,0.0764878547147,0,0.590606283551,0.0,0.0,0.0,0
2011-07-18 17:15:01,0.108161913552,0,0.624981108575,0.0,0.0,0.0,0
2011-07-18 18:15:01,0.0629654263968,0,0.594730183316,0.0,0.0,0.0,0
2011-07-18 19:15:01,0.0627778711954,0,0.570195510814,0.0,0.0,0.0,0
2011-07-18 20:15:01,0.0829712768458,0,0.559812132946,0.0,0.0,0.0,0
2011-07-18 21:15:01,0.072486775864,0,0.512388918315,0.0,0.0,0.0,0
2011-07-18 22:15:01,0.0465153280021,0,0.615691264467,0.0,0.0,0.0,0
2011-07-18 23:15:01,0.0649708660098,0,0.680674065324,0.0,0.0,0.0,0
2011-07-19 00:15:01,0.0542872877948,0,0.689723398175,0.0,0.0,0.0,0
2011-07-19 01:15:01,0.0844386663816,0,0.719883137167,0.0,0.0,0.0,0
2011-07-19 02:15:01,0.0762937898565,0,0.720016556435,0.0,0.0,0.0,0
2011-07-19 03:15:01,0.0647042811774,0,0.749092948399,0.0,0.0,0.0,0
2011-07-19 04:15:01,0.0650758401039,0,0.747718779491,0.0,0.0,0.0,0
2011-07-19 05:15:01,0.0470962361948,0,0.757834187513,0.0,0.0,0.0,0
2011-07-19 06:15:01,0.050915798499,0,0.777809182423,0.0,0.0,0.0,0
2011-07-19 07:15:01,0.0574549345408,0,0.786842294687,0.0,0.0,0.0,0
2011-07-19 08:15:01,0.0887670693221,0,0.760908421503,0.0,0.0,0.0,0
2011-07-19 09:15:01,0.0956427252147,1,0.741051628668,-1.0,-2.0,-1.0,0
2011-07-19 10:15:01,0.134599074393,1,0.685303508708,0.0,0.0,0.0,0
2011-07-19 11:15:01,0.150733188312,1,0.635778488341,0.0,0.0,0.0,0
2011-07-19 12:15:01,0.176928837284,1,0.556335411629,0.0,0.0,0.0,0
2011-07-19 13:15:01,0.0474528828666,1,0.570212290369,0.0,0.0,0.0,0
2011-07-19 14:15:01,0.158495243476,1,0.505530233886,0.0,0.0,0.0,0
2011-07-19 15:15:01,0.127990423787,1,0.571055310613,0.0,0.0,0.0,0
2011-07-19 16:15:01,0.0726038865705,1,0.588369253014,0.0,0.0,0.0,0
2011-07-19 17:15:01,0.033812147518,1,0.569487580372,0.0,0.0,0.0,0
2011-07-19 18:15:01,0.0830063930628,1,0.564861053345,0.0,0.0,0.0,0
2011-07-19 19:15:01,0.0461402834493,1,0.524803640569,0.0,0.0,0.0,0
2011-07-19 20:15:01,0.072892202426,1,0.525435928234,0.0,0.0,0.0,0
2011-07-19 21:15:01,0.0178826182849,1,0.63122659515,0.0,0.0,0.0,0
2011-07-19 22:15:01,0.0639101440938,1,0.714271158883,0.0,0.0,0.0,0
2011-07-19 23:15:01,0.0594058009562,1,0.705917202876,0.0,0.0,0.0,0
2011-07-20 00:15:01,0.0329371475845,1,0.787537458246,0.0,0.0,0.0,0
2011-07-20 01:15:01,0.0729786637227,1,0.818654325314,0.0,0.0,0.0,0
2011-07-20 02:15:01,0.0687412761938,1,0.82072637442,0.0,0.0,0.0,0
2011-07-20 03:15:01,0.0669368148738,1,0.80247390108,0.0,0.0,0.0,0
2011-07-20 04:15:01,0.0593114632766,1,0.815641647344,0.0,0.0,0.0,0
2011-07-20 05:15:01,0.0499977202613,1,0.813536022765,0.0,0.0,0.0,0
2011-07-20 06:15:01,0.0609585572073,1,0.820001991305,0.0,0.0,0.0,0
2011-07-20 07:15:01,0.0639160646989,1,0.794280809854,0.0,0.0,0.0,0
2011-07-20 08:15:01,0.0589012034573,1,0.797180947716,0.0,0.0,0.0,0
2011-07-20 09:15:01,0.0904764214065,1,0.778798856358,0.0,0.0,0.0,0
2011-07-20 10:15:01,0.954852905336,1,0.867479715757,0.0,0.0,0.0,0
2011-07-20 11:15:01,1.0,1,0.998683758177,0.0,0.0,0.0,0
2011-07-20 12:15:01,0.0332837884202,1,0.998333724151,0.0,0.0,0.0,0
2011-07-20 13:15:01,0.186390780519,1,0.999261630806,0.0,0.0,0.0,0
2011-07-20 14:15:01,0.130110042916,1,0.999555998071,0.0,0.0,0.0,0
2011-07-20 15:15:01,0.112616592793,1,0.999721441939,0.0,0.0,0.0,0
2011-07-20 16:15:01,0.0586390782377,1,0.999716512054,0.0,0.0,0.0,0
2011-07-20 17:15:01,0.0541789542791,1,0.999694916808,0.0,0.0,0.0,0
2011-07-20 18:15:01,0.0819084004704,1,0.999743656714,0.0,0.0,0.0,0
2011-07-20 19:15:01,0.0446905962157,1,0.999638278324,0.0,0.0,0.0,0
2011-07-20 20:15:01,0.0658988353231,1,0.941226214951,0.0,0.0,0.0,0
2011-07-20 21:15:01,0.0493325724699,1,0.646639704424,0.0,0.0,0.0,0
2011-07-20 22:15:01,0.0521035260407,1,0.632254784443,0.0,0.0,0.0,0
2011-07-20 23:15:01,0.0618009778146,1,0.72316290323,0.0,0.0,0.0,0
2011-07-21 00:15:01,0.0130014947937,1,0.797131179043,0.0,0.0,0.0,0
2011-07-21 01:15:01,0.0670411316669,1,0.822384419886,0.0,0.0,0.0,0
2011-07-21 02:15:01,0.0679993002618,1,0.817366652491,0.0,0.0,0.0,0
2011-07-21 03:15:01,0.0581955545981,1,0.815186581385,0.0,0.0,0.0,0
2011-07-21 04:15:01,0.0522784181997,1,0.830888364637,0.0,0.0,0.0,0
2011-07-21 05:15:01,0.053648782559,1,0.826234133249,0.0,0.0,0.0,0
2011-07-21 06:15:01,0.0559317898406,1,0.831407456369,0.0,0.0,0.0,0
2011-07-21 07:15:01,0.0524811684974,1,0.829784005625,0.0,0.0,0.0,0
2011-07-21 08:15:01,0.0571566902248,1,0.827157676359,0.0,0.0,0.0,0
2011-07-21 09:15:01,0.0864699610115,1,0.813968220886,0.0,0.0,0.0,0
2011-07-21 10:15:01,0.0967939102216,1,0.764698159997,0.0,0.0,0.0,0
2011-07-21 11:15:01,0.0992250359773,1,0.744014742417,0.0,0.0,0.0,0
2011-07-21 12:15:01,0.102117715847,0,0.721094914513,0.0,0.0,0.0,0
2011-07-21 13:15:01,0.14196287766,0,0.660940388067,0.0,0.0,0.0,0
2011-07-21 14:15:01,0.16175989963,0,0.575914376185,0.0,0.0,0.0,0
2011-07-21 15:15:01,0.0624068741363,0,0.568897067945,0.0,0.0,0.0,0
2011-07-21 16:15:01,0.0888301028186,0,0.542360865337,0.0,0.0,0.0,0
2011-07-21 17:15:01,0.0573181707897,0,0.538440381363,0.0,0.0,0.0,0
2011-07-21 18:15:01,0.103786457157,0,0.50051060582,0.0,0.0,0.0,0
2011-07-21 22:15:01,0.0547172402171,0,0.526360459887,0.0,0.0,0.0,0
2011-07-22 00:15:01,0.0393192228102,0,0.572795777447,0.0,0.0,0.0,0
2011-07-22 01:15:01,0.058962376424,0,0.604772304545,0.0,0.0,0.0,0
2011-07-22 02:15:01,0.056557544054,0,0.64011285304,0.0,0.0,0.0,0
2011-07-22 03:15:01,0.0550585367203,0,0.704101239528,0.0,0.0,0.0,0
2011-07-22 04:15:01,0.0478880002437,0,0.778987333547,0.0,0.0,0.0,0
2011-07-22 05:15:01,0.0511598464542,0,0.785745560259,0.0,0.0,0.0,0
2011-07-22 06:15:01,0.0610096735509,0,0.801936806971,0.0,0.0,0.0,0
2011-07-22 07:15:01,0.0728091848224,0,0.793014209441,0.0,0.0,0.0,0
2011-07-22 08:15:01,0.0594874967438,0,0.817899714423,0.0,0.0,0.0,0
2011-07-22 09:15:01,0.0754211240135,0,0.80651062908,0.0,0.0,0.0,0
2011-07-22 10:15:01,0.0690067736062,0,0.789440867263,0.0,0.0,0.0,0
2011-07-22 11:15:01,0.0956144970411,0,0.767192787799,0.0,0.0,0.0,0
2011-07-22 12:15:01,0.154243129595,0,0.701993821864,0.0,0.0,0.0,0
2011-07-22 13:15:01,0.160841471181,0,0.623284277746,0.0,0.0,0.0,0
2011-07-22 14:15:01,0.078597923464,0,0.599248878729,0.0,0.0,0.0,0
2011-07-22 15:15:01,0.0858028794325,0,0.57168151008,0.0,0.0,0.0,0
2011-07-22 16:15:01,0.0716695122943,0,0.563121321277,0.0,0.0,0.0,0
2011-07-22 17:15:01,0.0556918075055,0,0.576851027283,0.0,0.0,0.0,0
2011-07-22 18:15:01,0.0521873238045,0,0.582679168471,0.0,0.0,0.0,0
2011-07-22 19:15:01,0.0850602851693,0,0.574980052992,0.0,0.0,0.0,0
2011-07-22 20:15:01,0.0660750205045,0,0.577324910985,0.0,0.0,0.0,0
2011-07-22 21:15:01,0.0528248804994,0,0.61119610883,0.0,0.0,0.0,0
2011-07-22 22:15:01,0.0339423474636,0,0.701288951732,0.0,0.0,0.0,0
2011-07-22 23:15:01,0.0413508939088,0,0.779981323971,0.0,0.0,0.0,0
2011-07-23 03:15:01,0.0603096436018,0,0.790879796473,0.0,0.0,0.0,0
2011-07-23 05:15:01,0.052093893946,0,0.810114107213,0.0,0.0,0.0,0
2011-07-23 06:15:01,0.0527005334251,0,0.820442972539,0.0,0.0,0.0,0
2011-07-23 07:15:01,0.05851997528,0,0.818925800891,0.0,0.0,0.0,0
2011-07-23 08:15:01,0.0432706229648,0,0.787902477289,0.0,0.0,0.0,0
2011-07-23 11:15:01,0.112703089697,0,0.772438327448,0.0,0.0,0.0,0
2011-07-23 12:15:01,0.062853169229,0,0.774272768794,0.0,0.0,0.0,0
2011-07-23 13:15:01,0.185944268398,0,0.691922507887,0.0,0.0,0.0,0
2011-07-23 14:15:01,0.149693854755,0,0.611204145124,0.0,0.0,0.0,0
2011-07-23 15:15:01,0.070449877023,0,0.589960028245,0.0,0.0,0.0,0
2011-07-23 16:15:01,0.10557332392,0,0.556406014651,0.0,0.0,0.0,0
2011-07-23 17:15:01,0.0874867965348,0,0.529871517308,0.0,0.0,0.0,0
2011-07-23 18:15:01,0.0601879724755,0,0.524237008387,0.0,0.0,0.0,0
2011-07-23 19:15:01,0.0716049395212,0,0.514379231873,0.0,0.0,0.0,0
2011-07-23 20:15:01,0.0510121151313,0,0.508542521683,0.0,0.0,0.0,0
2011-07-23 21:15:01,0.0555649347887,0,0.551496895247,0.0,0.0,0.0,0
2011-07-23 22:15:01,0.0424498909083,0,0.566716264406,0.0,0.0,0.0,0
2011-07-23 23:15:01,0.0530542914067,0,0.662491192745,0.0,0.0,0.0,0