timestamp,value,is_anomaly,anomaly_score
2011-07-01 00:00:01,0.275946676291,0,0.5
2011-07-01 01:00:01,0.361088516825,0,0.5
2011-07-01 02:00:01,0.192590590699,0,0.5
2011-07-01 03:00:01,0.219367832414,0,0.5
2011-07-01 04:00:01,0.378699900795,0,0.5
2011-07-01 05:00:01,0.483350411326,0,0.5
2011-07-01 06:00:01,0.631784633791,0,0.5
2011-07-01 07:00:01,0.608137656068,0,0.5
2011-07-01 08:00:01,0.958247925896,0,0.5
2011-07-01 09:00:01,1.0,0,0.5
2011-07-01 10:00:01,0.73691691469,0,0.5
2011-07-01 11:00:01,0.666110939894,0,0.5
2011-07-01 12:00:01,0.594645944983,0,0.5
2011-07-01 13:00:01,0.585645384445,0,0.5
2011-07-01 14:00:01,0.54948146507,0,0.5
2011-07-01 15:00:01,0.541210543742,0,0.5
2011-07-01 16:00:01,0.429850478247,0,0.5
2011-07-01 17:00:01,0.385073119101,0,0.5
2011-07-01 18:00:01,0.359799641737,0,0.5
2011-07-01 19:00:01,0.324306053107,0,0.5
2011-07-01 20:00:01,0.268589828473,0,0.5
2011-07-01 21:00:01,0.28903099635,0,0.5
2011-07-01 22:00:01,0.299473409866,0,0.5
2011-07-01 23:00:01,0.360384815431,0,0.5
2011-07-02 00:00:01,0.456124538604,0,0.5
2011-07-02 01:00:01,0.321062902984,0,0.5
2011-07-02 02:00:01,0.287759096178,0,0.5
2011-07-02 03:00:01,0.213418782532,0,0.5
2011-07-02 04:00:01,0.222495371125,0,0.5
2011-07-02 05:00:01,0.235172621773,0,0.5
2011-07-02 06:00:01,0.433807124671,0,0.5
2011-07-02 07:00:01,0.573778307051,0,0.5
2011-07-02 08:00:01,0.812424379098,0,0.5
2011-07-02 09:00:01,0.623247172014,0,0.5
2011-07-02 10:00:01,0.642728198726,0,0.5
2011-07-02 11:00:01,0.581409617165,0,0.5
2011-07-02 12:00:01,0.587595826612,0,0.5
2011-07-02 13:00:01,0.583332196687,0,0.5
2011-07-02 14:00:01,0.628362456257,0,0.5
2011-07-02 15:00:01,0.581748893796,0,0.5
2011-07-02 16:00:01,0.377166183925,0,0.5
2011-07-02 17:00:01,0.328553058009,0,0.5
2011-07-02 18:00:01,0.248367682304,0,0.5
2011-07-02 19:00:01,0.237841397791,0,0.5
2011-07-02 20:00:01,0.221002587445,0,0.5
2011-07-02 21:00:01,0.1519254295,0,0.5
2011-07-02 22:00:01,0.180554279014,0,0.5
2011-07-02 23:00:01,0.193746104158,0,0.5
2011-07-03 00:00:01,0.149548181036,0,0.5
2011-07-03 01:00:01,0.15978422967,0,0.5
2011-07-03 02:00:01,0.165381777115,0,0.5
2011-07-03 03:00:01,0.122350955684,0,0.5
2011-07-03 04:00:01,0.161525811378,0,0.5
2011-07-03 05:00:01,0.211743860931,0,0.5
2011-07-03 06:00:01,0.325999835851,0,0.5
2011-07-03 07:00:01,0.489490752632,0,0.5
2011-07-03 08:00:01,0.957434336521,0,0.5
2011-07-03 09:00:01,0.727327784874,0,0.5
2011-07-03 10:00:01,0.581178493674,0,0.5
2011-07-03 11:00:01,0.603231026737,0,0.5
2011-07-03 12:00:01,0.482067083853,0,0.5
2011-07-03 13:00:01,0.485359562459,0,0.5
2011-07-03 14:00:01,0.473659277556,0,0.5
2011-07-03 15:00:01,0.438259894292,0,0.5
2011-07-03 16:00:01,0.313625619374,0,0.5
2011-07-03 17:00:01,0.265035476212,0,0.5
2011-07-03 18:00:01,0.228192855887,0,0.5
2011-07-03 19:00:01,0.201558153087,0,0.5
2011-07-03 20:00:01,0.178863273591,0,0.5
2011-07-03 21:00:01,0.121962963028,0,0.5
2011-07-03 22:00:01,0.117016841474,0,0.5
2011-07-03 23:00:01,0.131362480794,0,0.5
2011-07-04 00:00:01,0.0932281497613,0,0.5
2011-07-04 01:00:01,0.106921809133,0,0.5
2011-07-04 02:00:01,0.0782342472076,0,0.5
2011-07-04 03:00:01,0.0468160547573,0,0.5
2011-07-04 04:00:01,0.0776197342953,0,0.5
2011-07-04 05:00:01,0.174038778376,0,0.5
2011-07-04 06:00:01,0.353192451533,0,0.5
2011-07-04 07:00:01,0.476903858274,0,0.5
2011-07-04 08:00:01,0.779811539414,0,0.5
2011-07-04 09:00:01,0.747323497451,0,0.5
2011-07-04 10:00:01,0.601275044316,0,0.5
2011-07-04 11:00:01,0.475412665787,0,0.5
2011-07-04 12:00:01,0.503159917847,0,0.5
2011-07-04 13:00:01,0.42325618582,0,0.5
2011-07-04 14:00:01,0.48537372955,0,0.5
2011-07-04 15:00:01,0.420788355221,0,0.5
2011-07-04 16:00:01,0.298185227691,0,0.5
2011-07-04 17:00:01,0.295097009822,0,0.5
2011-07-04 18:00:01,0.222224145915,0,0.5
2011-07-04 19:00:01,0.198448117345,0,0.5
2011-07-04 20:00:01,0.182839435826,0,0.5
2011-07-04 21:00:01,0.167354227965,0,0.5
2011-07-04 22:00:01,0.168458987214,0,0.5
2011-07-04 23:00:01,0.164158762686,0,0.5
2011-07-05 00:00:01,0.143472201654,0,0.5
2011-07-05 01:00:01,0.0792327156491,0,0.5
2011-07-05 02:00:01,0.0931744118938,0,0.5
2011-07-05 03:00:01,0.0521992370314,0,0.5
2011-07-05 04:00:01,0.0899984990542,0,0.5
2011-07-05 05:00:01,0.191001647266,0,0.5
2011-07-05 06:00:01,0.340295120485,0,0.5
2011-07-05 07:00:01,0.454951060084,0,0.5
2011-07-05 08:00:01,0.750871674955,0,0.5
2011-07-05 09:00:01,0.599306153501,0,0.5
2011-07-05 10:00:01,0.534311104274,0,0.5
2011-07-05 11:00:01,0.564435719021,0,0.5
2011-07-05 12:00:01,0.432531105514,0,0.5
2011-07-05 13:00:01,0.471663198127,0,0.5
2011-07-05 14:00:01,0.462898156046,0,0.5
2011-07-05 15:00:01,0.394847944433,0,0.5
2011-07-05 16:00:01,0.320454315085,0,0.5
2011-07-05 17:00:01,0.278505244427,0,0.5
2011-07-05 18:00:01,0.238567376325,0,0.5
2011-07-05 19:00:01,0.244704814746,0,0.5
2011-07-05 20:00:01,0.218470978492,0,0.5
2011-07-05 21:00:01,0.195638826624,0,0.5
2011-07-05 22:00:01,0.120419029584,0,0.5
2011-07-05 23:00:01,0.141305220948,0,0.5
2011-07-06 00:00:01,0.162307619427,0,0.5
2011-07-06 01:00:01,0.119221670671,0,0.5
2011-07-06 02:00:01,0.070646399389,0,0.5
2011-07-06 03:00:01,0.0432744218107,0,0.5
2011-07-06 04:00:01,0.158096564522,0,0.5
2011-07-06 05:00:01,0.356089416063,0,0.5
2011-07-06 06:00:01,0.411416132033,0,0.5
2011-07-06 07:00:01,0.460049911658,0,0.5
2011-07-06 08:00:01,0.724179379656,0,0.5
2011-07-06 09:00:01,0.755997003547,0,0.5
2011-07-06 10:00:01,0.559863002073,0,0.5
2011-07-06 11:00:01,0.570516244955,0,0.5
2011-07-06 12:00:01,0.633649963394,0,0.5
2011-07-06 13:00:01,0.423307131633,0,0.5
2011-07-06 14:00:01,0.437095130291,0,0.5
2011-07-06 15:00:01,0.452861111475,0,0.5
2011-07-06 16:00:01,0.302031588541,0,0.5
2011-07-06 17:00:01,0.319004231899,0,0.5
2011-07-06 18:00:01,0.280245251891,0,0.5
2011-07-06 19:00:01,0.308750511951,0,0.5
2011-07-06 20:00:01,0.290809276772,0,0.5
2011-07-06 21:00:01,0.33011481911,0,0.5
2011-07-06 22:00:01,0.269394889526,0,0.5
2011-07-06 23:00:01,0.234929876428,0,0.5
2011-07-07 00:00:01,0.160874594473,0,0.5
2011-07-07 01:00:01,0.125353137835,0,0.5
2011-07-07 02:00:01,0.0654414895786,0,0.5
2011-07-07 03:00:01,0.0486270963718,0,0.5
2011-07-07 04:00:01,0.0773060252652,0,0.5
2011-07-07 05:00:01,0.165543257433,0,0.5
2011-07-07 06:00:01,0.207839534986,0,0.5
2011-07-07 07:00:01,0.258808233369,0,0.5
2011-07-07 08:00:01,0.550960021191,0,0.5
2011-07-07 09:00:01,0.538306863219,0,0.5
2011-07-07 10:00:01,0.517910034103,0,0.5
2011-07-07 11:00:01,0.336324786211,0,0.5
2011-07-07 12:00:01,0.341023751543,0,0.5
2011-07-07 13:00:01,0.264973187316,0,0.5
2011-07-07 14:00:01,0.299071807383,0,0.5
2011-07-07 15:00:01,0.280373321419,0,0.5
2011-07-07 16:00:01,0.187735327853,0,0.5
2011-07-07 17:00:01,0.181941185316,0,0.5
2011-07-07 18:00:01,0.160137261441,0,0.5
2011-07-07 19:00:01,0.142468610784,0,0.5
2011-07-07 20:00:01,0.184099178931,0,0.5
2011-07-07 21:00:01,0.214355791183,0,0.5
2011-07-07 22:00:01,0.202078987196,0,0.5
2011-07-07 23:00:01,0.189851688187,0,0.5
2011-07-08 00:00:01,0.130588294868,0,0.5
2011-07-08 01:00:01,0.0808839538628,0,0.5
2011-07-08 02:00:01,0.0512713219866,0,0.5
2011-07-08 03:00:01,0.0110797171031,0,0.5
2011-07-08 04:00:01,0.0610310215317,0,0.5
2011-07-08 05:00:01,0.139831625394,0,0.5
2011-07-08 06:00:01,0.254360210591,0,0.5
2011-07-08 07:00:01,0.394514314267,0,0.5
2011-07-08 08:00:01,0.399918045424,0,0.5
2011-07-08 09:00:01,0.517987558452,0,0.5
2011-07-08 10:00:01,0.436319531928,0,0.5
2011-07-08 11:00:01,0.357716260996,0,0.5
2011-07-08 12:00:01,0.314250218044,0,0.5
2011-07-08 13:00:01,0.276431006349,0,0.5
2011-07-08 14:00:01,0.253723315516,0,0.5
2011-07-08 15:00:01,0.269617869874,0,0.5
2011-07-08 16:00:01,0.181113636369,0,0.5
2011-07-08 17:00:01,0.221535139995,0,0.5
2011-07-08 18:00:01,0.212211402485,0,0.5
2011-07-08 19:00:01,0.155119312601,0,0.5
2011-07-08 20:00:01,0.120490795016,0,0.5
2011-07-08 21:00:01,0.149267269018,0,0.5
2011-07-08 22:00:01,0.125378314696,0,0.5
2011-07-08 23:00:01,0.11539910325,0,0.5
2011-07-09 00:00:01,0.120500889149,0,0.5
2011-07-09 01:00:01,0.13767933974,0,0.5
2011-07-09 02:00:01,0.0988429419725,0,0.5
2011-07-09 03:00:01,0.0700629219779,0,0.5
2011-07-09 04:00:01,0.150488914652,0,0.5
2011-07-09 05:00:01,0.19377178612,0,0.5
2011-07-09 06:00:01,0.281205779496,0,0.5
2011-07-09 07:00:01,0.382247892041,0,0.5
2011-07-09 08:00:01,0.553389993971,0,0.5
2011-07-09 09:00:01,0.490351683818,0,0.5
2011-07-09 10:00:01,0.410969316892,0,0.5
2011-07-09 11:00:01,0.420747564227,0,0.5
2011-07-09 12:00:01,0.379645984243,0,0.5
2011-07-09 13:00:01,0.289494031058,0,0.5
2011-07-09 14:00:01,0.236689809684,0,0.5
2011-07-09 15:00:01,0.210222543154,0,0.5
2011-07-09 16:00:01,0.170654732834,0,0.5
2011-07-09 17:00:01,0.121844693431,0,0.5
2011-07-09 18:00:01,0.232421266133,0,0.5
2011-07-09 19:00:01,0.239589166219,0,0.5
2011-07-09 20:00:01,0.212846265856,0,0.5
2011-07-09 21:00:01,0.214902588229,0,0.5
2011-07-09 22:00:01,0.130303629564,0,0.5
2011-07-09 23:00:01,0.168764851404,0,0.5
2011-07-10 00:00:01,0.205554025213,0,0.5
2011-07-10 01:00:01,0.142869137171,0,0.5
2011-07-10 02:00:01,0.0711947495759,0,0.5
2011-07-10 03:00:01,0.0611097209986,0,0.5
2011-07-10 04:00:01,0.0919649490962,0,0.5
2011-07-10 05:00:01,0.150270718661,0,0.5
2011-07-10 06:00:01,0.222548159886,0,0.5
2011-07-10 07:00:01,0.311071256338,0,0.5
2011-07-10 08:00:01,0.612852627896,0,0.5
2011-07-10 09:00:01,0.478771555899,0,0.5
2011-07-10 10:00:01,0.451304488074,0,0.5
2011-07-10 11:00:01,0.423906032532,0,0.5
2011-07-10 12:00:01,0.3683548869,0,0.5
2011-07-10 13:00:01,0.269784511867,0,0.5
2011-07-10 14:00:01,0.308905324253,0,0.5
2011-07-10 15:00:01,0.288899288502,0,0.5
2011-07-10 16:00:01,0.267672109979,0,0.5
2011-07-10 17:00:01,0.242108062173,0,0.5
2011-07-10 18:00:01,0.168047838204,0,0.5
2011-07-10 19:00:01,0.171891550851,0,0.5
2011-07-10 20:00:01,0.156786850483,0,0.5
2011-07-10 21:00:01,0.144655827073,0,0.5
2011-07-10 22:00:01,0.144608182396,0,0.5
2011-07-10 23:00:01,0.143396458925,0,0.5
2011-07-11 00:00:01,0.0838658416677,0,0.5
2011-07-11 01:00:01,0.0709421245783,0,0.5
2011-07-11 02:00:01,0.0612141797188,0,0.5
2011-07-11 03:00:01,0.107959660287,0,0.5
2011-07-11 04:00:01,0.140109650112,1,0.5
2011-07-11 05:00:01,0.265533631504,1,0.5
2011-07-11 06:00:01,0.318447810136,1,0.5
2011-07-11 07:00:01,0.415851971532,1,0.5
2011-07-11 08:00:01,0.614193762676,1,0.5
2011-07-11 09:00:01,0.51124530006,1,0.5
2011-07-11 10:00:01,0.471268020866,1,0.5
2011-07-11 11:00:01,0.398403030033,1,0.5
2011-07-11 12:00:01,0.356565710812,1,0.5
2011-07-11 13:00:01,0.314147754422,1,0.5
2011-07-11 14:00:01,0.28166628556,1,0.5
2011-07-11 15:00:01,0.246852310979,1,0.5
2011-07-11 16:00:01,0.213842810228,1,0.5
2011-07-11 17:00:01,0.266456460694,1,0.5
2011-07-11 18:00:01,0.222591048442,1,0.5
2011-07-11 19:00:01,0.210550944008,1,0.5
2011-07-11 20:00:01,0.194561313567,1,0.5
2011-07-11 21:00:01,0.110336433277,1,0.5
2011-07-11 22:00:01,0.0890613332813,1,0.5
2011-07-11 23:00:01,0.0844171879873,1,0.5
2011-07-12 00:00:01,0.0686431465856,1,0.5
2011-07-12 01:00:01,0.0638552287237,1,0.5
2011-07-12 02:00:01,0.0540997693037,1,0.5
2011-07-12 03:00:01,0.00271602612959,1,0.5
2011-07-12 04:00:01,0.0657397141769,1,0.5
2011-07-12 05:00:01,0.122223726185,1,0.5
2011-07-12 06:00:01,0.250410901638,1,0.5
2011-07-12 07:00:01,0.288408385187,1,0.5
2011-07-12 08:00:01,0.541029441456,1,0.5
2011-07-12 09:00:01,0.520281485762,1,0.5
2011-07-12 10:00:01,0.479554333355,1,0.5
2011-07-12 11:00:01,0.44792985131,1,0.5
2011-07-12 12:00:01,0.431688533752,1,0.5
2011-07-12 13:00:01,0.344998233511,1,0.5
2011-07-12 14:00:01,0.34039552767,1,0.5
2011-07-12 15:00:01,0.308107888605,1,0.5
2011-07-12 16:00:01,0.268787771603,1,0.5
2011-07-12 17:00:01,0.285161528651,1,0.5
2011-07-12 18:00:01,0.215785071264,1,0.5
2011-07-12 19:00:01,0.225923915975,1,0.5
2011-07-12 20:00:01,0.224493123296,1,0.5
2011-07-12 21:00:01,0.241922369996,1,0.5
2011-07-12 22:00:01,0.216965567425,1,0.5
2011-07-12 23:00:01,0.178430223747,1,0.5
2011-07-13 00:00:01,0.16149372303,1,0.5
2011-07-13 01:00:01,0.148211632259,1,0.5
2011-07-13 02:00:01,0.113851269513,1,0.5
2011-07-13 03:00:01,0.0798896523653,1,0.5
2011-07-13 04:00:01,0.174598799234,1,0.5
2011-07-13 05:00:01,0.25980069117,1,0.5
2011-07-13 06:00:01,0.388642056667,1,0.5
2011-07-13 07:00:01,0.553457301205,1,0.5
2011-07-13 08:00:01,0.731696990033,1,0.5
2011-07-13 09:00:01,0.669939160704,1,0.5
2011-07-13 10:00:01,0.568720592329,1,0.5
2011-07-13 11:00:01,0.593578364683,1,0.5
2011-07-13 12:00:01,0.392669366066,1,0.5
2011-07-13 13:00:01,0.414843938726,1,0.5
2011-07-13 14:00:01,0.462522814613,1,0.5
2011-07-13 15:00:01,0.414825800553,1,0.5
2011-07-13 16:00:01,0.428810329574,1,0.5
2011-07-13 17:00:01,0.269231871809,1,0.5
2011-07-13 18:00:01,0.241959825918,1,0.5
2011-07-13 19:00:01,0.187695585804,1,0.5
2011-07-13 20:00:01,0.182382409442,1,0.5
2011-07-13 21:00:01,0.129729647867,1,0.5
2011-07-13 22:00:01,0.159743375443,1,0.5
2011-07-13 23:00:01,0.203560868475,1,0.5
2011-07-14 00:00:01,0.181330903933,1,0.5
2011-07-14 01:00:01,0.1373094375,1,0.5
2011-07-14 02:00:01,0.0931178811682,1,0.5
2011-07-14 03:00:01,0.0798045887979,1,0.5
2011-07-14 04:00:01,0.243527289163,1,0.5
2011-07-14 05:00:01,0.47451448711,1,0.5
2011-07-14 06:00:01,0.386996414781,1,0.5
2011-07-14 07:00:01,0.450602045167,1,0.5
2011-07-14 08:00:01,0.685832621512,1,0.5
2011-07-14 09:00:01,0.537290727413,1,0.5
2011-07-14 10:00:01,0.464546894992,1,0.5
2011-07-14 11:00:01,0.392556981746,1,0.5
2011-07-14 12:00:01,0.563477502404,1,0.5
2011-07-14 13:00:01,0.731179520997,1,0.5
2011-07-14 14:00:01,0.583571414267,1,0.5
2011-07-14 15:00:01,0.431878993996,1,0.5
2011-07-14 16:00:01,0.378408977856,1,0.5
2011-07-14 17:00:01,0.339153167295,1,0.5
2011-07-14 18:00:01,0.304604172557,1,0.5
2011-07-14 19:00:01,0.251051361994,1,0.5
2011-07-14 20:00:01,0.196346239855,1,0.5
2011-07-14 21:00:01,0.209299197784,1,0.5
2011-07-14 22:00:01,0.18144094337,1,0.5
2011-07-14 23:00:01,0.200388548527,1,0.5
2011-07-15 00:00:01,0.198868541241,1,0.5
2011-07-15 01:00:01,0.187500553811,1,0.5
2011-07-15 02:00:01,0.138951630134,1,0.5
2011-07-15 03:00:01,0.109929965744,1,0.5
2011-07-15 04:00:01,0.194731098018,1,0.5
2011-07-15 05:00:01,0.281804991967,1,0.5
2011-07-15 06:00:01,0.352526369158,1,0.5
2011-07-15 07:00:01,0.507875476049,1,0.5
2011-07-15 08:00:01,0.57859915547,1,0.5
2011-07-15 09:00:01,0.58465417884,1,0.5
2011-07-15 10:00:01,0.405650718773,1,0.5
2011-07-15 11:00:01,0.508703834698,1,0.5
2011-07-15 12:00:01,0.63628936096,1,0.5
2011-07-15 13:00:01,0.471422073089,1,0.5
2011-07-15 14:00:01,0.477401623109,1,0.5
2011-07-15 15:00:01,0.462572274065,1,0.5
2011-07-15 16:00:01,0.494987716133,1,0.5
2011-07-15 17:00:01,0.393904916434,1,0.5
2011-07-15 18:00:01,0.405909925234,1,0.5
2011-07-15 19:00:01,0.372667230317,1,0.5
2011-07-15 20:00:01,0.2572238328,1,0.5
2011-07-15 21:00:01,0.263318791134,1,0.5
2011-07-15 22:00:01,0.199388371454,1,0.5
2011-07-15 23:00:01,0.205879514813,1,0.5
2011-07-16 00:00:01,0.180164096035,1,0.5
2011-07-16 01:00:01,0.154113682236,1,0.5
2011-07-16 02:00:01,0.123865239657,1,0.5
2011-07-16 03:00:01,0.0955698879882,1,0.5
2011-07-16 04:00:01,0.16296999539,1,0.5
2011-07-16 05:00:01,0.211467642218,1,0.5
2011-07-16 06:00:01,0.288705544382,1,0.5
2011-07-16 07:00:01,0.511066071185,1,0.5
2011-07-16 08:00:01,0.533327301592,1,0.5
2011-07-16 09:00:01,0.534773518342,1,0.5
2011-07-16 10:00:01,0.417516000831,1,0.5
2011-07-16 11:00:01,0.488724178137,1,0.5
2011-07-16 12:00:01,0.514352290896,1,0.5
2011-07-16 13:00:01,0.450293042436,1,0.5
2011-07-16 14:00:01,0.525697355064,1,0.5
2011-07-16 15:00:01,0.484118083645,1,0.5
2011-07-16 16:00:01,0.397677135246,1,0.5
2011-07-16 17:00:01,0.303861289053,1,0.5
2011-07-16 18:00:01,0.290620497591,1,0.5
2011-07-16 19:00:01,0.29125968898,1,0.5
2011-07-16 20:00:01,0.310256360457,1,0.5
2011-07-16 21:00:01,0.269337970292,1,0.5
2011-07-16 22:00:01,0.324591702971,1,0.5
2011-07-16 23:00:01,0.341709306087,1,0.5
2011-07-17 00:00:01,0.277690439738,1,0.5
2011-07-17 01:00:01,0.285877231867,1,0.5
2011-07-17 02:00:01,0.223083008898,1,0.5
2011-07-17 03:00:01,0.200257175648,1,0.5
2011-07-17 04:00:01,0.315332013397,1,0.697020447095
2011-07-17 05:00:01,0.298319533775,1,0.694796881078
2011-07-17 06:00:01,0.347806943397,1,0.682850391542
2011-07-17 07:00:01,0.536198028271,1,0.593055871646
2011-07-17 08:00:01,0.514906404359,1,0.525538850814
2011-07-17 09:00:01,0.435730574879,1,0.508214951034
2011-07-17 10:00:01,0.38257383414,1,0.545787996864
2011-07-17 11:00:01,0.484735028382,1,0.615648280369
2011-07-17 12:00:01,0.458363352844,1,0.693539910465
2011-07-17 13:00:01,0.470637904088,1,0.773177131388
2011-07-17 14:00:01,0.506925721096,1,0.821697945546
2011-07-17 15:00:01,0.484452842509,1,0.862020744575
2011-07-17 16:00:01,0.386228992612,1,0.875005727986
2011-07-17 17:00:01,0.32709819547,1,0.830148803224
2011-07-17 18:00:01,0.258370963627,1,0.762618607638
2011-07-17 19:00:01,0.21184864386,1,0.69332523933
2011-07-17 20:00:01,0.296490691678,1,0.664495195228
2011-07-17 21:00:01,0.272587555903,1,0.589511207483
2011-07-17 22:00:01,0.249387631258,1,0.51227756726
2011-07-17 23:00:01,0.210465529993,0,0.584190115417
2011-07-18 00:00:01,0.281638658966,0,0.663995493954
2011-07-18 01:00:01,0.147069520492,0,0.770056215342
2011-07-18 02:00:01,0.137132228854,0,0.8344933708
2011-07-18 03:00:01,0.130760974131,0,0.876110050679
2011-07-18 04:00:01,0.152810386654,0,0.895172749474
2011-07-18 05:00:01,0.270184988449,0,0.884918552743
2011-07-18 06:00:01,0.28051428828,0,0.887795233819
2011-07-18 07:00:01,0.358636473715,0,0.871683010592
2011-07-18 08:00:01,0.534974035626,0,0.807084317876
2011-07-18 09:00:01,0.493632292303,0,0.726507691099
2011-07-18 10:00:01,0.430298166869,0,0.678391658235
2011-07-18 11:00:01,0.532742043306,0,0.54077618646
2011-07-18 12:00:01,0.437533140387,0,0.570894243879
2011-07-18 13:00:01,0.414953141727,0,0.671669496018
2011-07-18 14:00:01,0.41943443285,0,0.756149013308
2011-07-18 15:00:01,0.5282279382,0,0.825204025693
2011-07-18 16:00:01,0.407824632354,0,0.854169883689
2011-07-18 17:00:01,0.430146639982,0,0.868938626538
2011-07-18 18:00:01,0.299687621283,0,0.816276366688
2011-07-18 19:00:01,0.199267342391,0,0.73430042411
2011-07-18 20:00:01,0.171026066503,0,0.649254702741
2011-07-18 21:00:01,0.182791246296,0,0.52229402252
2011-07-18 22:00:01,0.154778658983,0,0.582627381271
2011-07-18 23:00:01,0.162396956858,0,0.671803625817
2011-07-19 00:00:01,0.159012485453,0,0.754442741939
2011-07-19 01:00:01,0.167209255715,0,0.8476223079
2011-07-19 02:00:01,0.156534262826,0,0.896414769039
2011-07-19 03:00:01,0.13407314234,0,0.938021686753
2011-07-19 04:00:01,0.245693066468,0,0.943957502848
2011-07-19 05:00:01,0.344614058784,0,0.926875855055
2011-07-19 06:00:01,0.594861101282,0,0.854605406566
2011-07-19 07:00:01,0.256800172054,0,0.838216118061
2011-07-19 08:00:01,0.500676750723,0,0.746509890428
2011-07-19 09:00:01,0.545835184122,0,0.619748651968
2011-07-19 10:00:01,0.484522062928,0,0.500115534887
2011-07-19 11:00:01,0.430211660773,0,0.597067076794
2011-07-19 12:00:01,0.407610880751,0,0.684620218455
2011-07-19 13:00:01,0.371329708765,0,0.758854910849
2011-07-19 14:00:01,0.4649762039,0,0.818001351617
2011-07-19 15:00:01,0.392254231488,0,0.829538852293
2011-07-19 16:00:01,0.386453408219,0,0.775585372029
2011-07-19 17:00:01,0.304297567288,0,0.78866698924
2011-07-19 18:00:01,0.259365740568,0,0.717707810085
2011-07-19 19:00:01,0.258848887131,0,0.620789508996
2011-07-19 20:00:01,0.226502376036,0,0.526376433397
2011-07-19 21:00:01,0.211404301204,0,0.555093761927
2011-07-19 22:00:01,0.189243519226,0,0.634138894593
2011-07-19 23:00:01,0.156505790833,0,0.706715416391
2011-07-20 00:00:01,0.101474822501,0,0.811621898046
2011-07-20 01:00:01,0.101340865165,0,0.876170351088
2011-07-20 02:00:01,0.0864466045127,0,0.924601981873
2011-07-20 03:00:01,0.0648820255995,0,0.951614255783
2011-07-20 04:00:01,0.131722736762,0,0.962472470724
2011-07-20 05:00:01,0.281807772135,0,0.960681385555
2011-07-20 06:00:01,0.295278675358,0,0.954896301391
2011-07-20 07:00:01,0.440625508102,0,0.930544207356
2011-07-20 08:00:01,0.57110517065,0,0.869197341891
2011-07-20 09:00:01,0.596044256381,0,0.761579901497
2011-07-20 10:00:01,0.465378580619,0,0.644660005277
2011-07-20 11:00:01,0.392572541214,0,0.539224674881
2011-07-20 12:00:01,0.441251391833,0,0.592296986046
2011-07-20 13:00:01,0.475307708385,0,0.731525165744
2011-07-20 14:00:01,0.481374746049,0,0.827555630214
2011-07-20 15:00:01,0.374176710675,0,0.848721569337
2011-07-20 16:00:01,0.391409844982,0,0.868835103106
2011-07-20 17:00:01,0.309570517593,0,0.840931287435
2011-07-20 18:00:01,0.24799350465,0,0.756787148503
2011-07-20 19:00:01,0.226558488802,0,0.636955171301
2011-07-20 20:00:01,0.289532391163,0,0.573706496468
2011-07-20 21:00:01,0.297995861259,0,0.538770698839
2011-07-20 22:00:01,0.295282798999,0,0.515644095121
2011-07-20 23:00:01,0.30699149324,0,0.577965930148
2011-07-21 00:00:01,0.228820081496,0,0.667481921632
2011-07-21 01:00:01,0.118004795808,0,0.74940950271
2011-07-21 02:00:01,0.135929456954,0,0.819022943961
2011-07-21 03:00:01,0.115072797012,0,0.8629371002
2011-07-21 04:00:01,0.18511391331,0,0.875429376152
2011-07-21 06:00:01,0.314464318835,0,0.857734734125
2011-07-21 07:00:01,0.357897436277,0,0.842849499408
2011-07-21 08:00:01,0.647551843556,0,0.751497725697
2011-07-21 09:00:01,0.432730227658,0,0.709053315277
2011-07-21 10:00:01,0.473761866346,0,0.653430521156
2011-07-21 11:00:01,0.454258181993,0,0.572871594606
2011-07-21 12:00:01,0.494267975402,0,0.566835784579
2011-07-21 13:00:01,0.49571851083,0,0.693194350402
2011-07-21 14:00:01,0.513154846385,0,0.809852192999
2011-07-21 15:00:01,0.47956348116,0,0.875508810573
2011-07-21 16:00:01,0.380321259102,0,0.887709592213
2011-07-21 17:00:01,0.309914625644,0,0.878908299842
2011-07-21 18:00:01,0.308445195044,0,0.802974783099
2011-07-21 19:00:01,0.29683667231,0,0.765822883361
2011-07-21 20:00:01,0.259115968232,0,0.699981405086
2011-07-21 21:00:01,0.26459174246,0,0.672772893589
2011-07-21 22:00:01,0.232050585983,0,0.573798875815
2011-07-21 23:00:01,0.180059724275,0,0.551232380746
2011-07-22 00:00:01,0.153653130803,0,0.686988864518
2011-07-22 01:00:01,0.116908493258,0,0.802069283362
2011-07-22 02:00:01,0.0864035384988,0,0.873310708312
2011-07-22 03:00:01,0.0636610126849,0,0.917399253691
2011-07-22 04:00:01,0.171996686832,0,0.936230472692
2011-07-22 05:00:01,0.195274741474,0,0.947937228311
2011-07-22 06:00:01,0.218433469989,0,0.952118330734
2011-07-22 07:00:01,0.31756074463,0,0.946619001758
2011-07-22 08:00:01,0.485012744707,0,0.913183364299
2011-07-22 09:00:01,0.494501431578,0,0.852451548317
2011-07-22 10:00:01,0.480531015446,0,0.764541054518
2011-07-22 11:00:01,0.373340143947,0,0.679115975205
2011-07-22 12:00:01,0.439467494488,0,0.545020985945
2011-07-22 13:00:01,0.49366253172,0,0.623915529201
2011-07-22 14:00:01,0.494997998404,0,0.738241598755
2011-07-22 15:00:01,0.455939535382,0,0.815384292756
2011-07-22 16:00:01,0.41015639138,0,0.86195246359
2011-07-22 17:00:01,0.335610216286,0,0.865882313905
2011-07-22 18:00:01,0.300477384849,0,0.822018473445
2011-07-22 19:00:01,0.175607878976,0,0.727420028535
2011-07-22 20:00:01,0.195030460278,0,0.625621171756
2011-07-22 21:00:01,0.223847790484,0,0.567958167392
2011-07-22 22:00:01,0.221357088755,0,0.518488105843
2011-07-22 23:00:01,0.202315951803,0,0.631919248617
2011-07-23 00:00:01,0.154247123924,0,0.750732556406
2011-07-23 01:00:01,0.189909662535,0,0.826936446688
2011-07-23 02:00:01,0.080703387575,0,0.898085109748
2011-07-23 03:00:01,0.0505934222121,0,0.940025064719
2011-07-23 04:00:01,0.199803503857,0,0.951077650534
2011-07-23 05:00:01,0.256666206812,0,0.942319602015
2011-07-23 06:00:01,0.150711076079,0,0.947249582704
2011-07-23 07:00:01,0.304154914732,0,0.9380557099
2011-07-23 08:00:01,0.507439296246,0,0.894956086369
2011-07-23 09:00:01,0.481824148556,0,0.835108197851
2011-07-23 10:00:01,0.418659000466,0,0.761405944655
2011-07-23 11:00:01,0.459581121171,0,0.670708054252
2011-07-23 12:00:01,0.489326878032,0,0.513688542396
2011-07-23 13:00:01,0.45482961056,0,0.643882368891
2011-07-23 14:00:01,0.494370596883,0,0.746222377022
2011-07-23 15:00:01,0.428723675412,0,0.797931293888
2011-07-23 16:00:01,0.285980445635,0,0.833769543058
2011-07-23 17:00:01,0.213507272302,0,0.810234113343
2011-07-23 18:00:01,0.176139664155,0,0.708267264695
2011-07-23 19:00:01,0.168736244881,0,0.593308553527
2011-07-23 20:00:01,0.14189232817,0,0.515943733696
2011-07-23 21:00:01,0.118912719999,0,0.647934266006
2011-07-23 22:00:01,0.155216303103,0,0.76207170064
2011-07-23 23:00:01,0.112523936387,0,0.854147609646
2011-07-24 00:00:01,0.124627539737,0,0.922655281263
2011-07-24 01:00:01,0.0828679864422,0,0.961478621052
2011-07-24 02:00:01,0.042074680477,0,0.977857003298
2011-07-24 03:00:01,0.0120811502262,0,0.986526022918
2011-07-24 04:00:01,0.151364633348,0,0.987356203873
2011-07-24 05:00:01,0.189746677028,0,0.986655125122
2011-07-24 06:00:01,0.11519070187,0,0.987540532099
2011-07-24 07:00:01,0.259760171136,0,0.982231224382
2011-07-24 08:00:01,0.398150079568,0,0.968549014384
2011-07-24 09:00:01,0.405581863627,0,0.9415122184
2011-07-24 10:00:01,0.423180220836,0,0.89792685162
2011-07-24 11:00:01,0.407349860987,0,0.827975993769
2011-07-24 12:00:01,0.390168699056,0,0.7254193509
2011-07-24 13:00:01,0.377459521559,0,0.592739846977
2011-07-24 14:00:01,0.551395993054,0,0.565284854556
2011-07-24 15:00:01,0.404923914471,0,0.647653952879
2011-07-24 16:00:01,0.274870870224,0,0.704799530235
2011-07-24 17:00:01,0.236065982521,0,0.696591806319
2011-07-24 18:00:01,0.217746591107,0,0.631071827419
2011-07-24 19:00:01,0.154390042891,0,0.533535916354
2011-07-24 20:00:01,0.140339531345,0,0.578452645394
2011-07-24 21:00:01,0.123323170866,0,0.684818968638
2011-07-24 22:00:01,0.135800499047,0,0.768805119364
2011-07-24 23:00:01,0.114527825925,0,0.840656240861
2011-07-25 00:00:01,0.102847806993,0,0.925704858456
2011-07-25 01:00:01,0.0474859809048,0,0.964150767269
2011-07-25 02:00:01,0.0149828490413,0,0.98031188775
2011-07-25 03:00:01,0.0,0,0.989152893316
2011-07-25 04:00:01,0.101074573777,0,0.992068340555
2011-07-25 05:00:01,0.247170109172,0,0.989816265166
2011-07-25 06:00:01,0.202783338734,0,0.988003112033
2011-07-25 07:00:01,0.274985848776,0,0.982396282898
2011-07-25 08:00:01,0.543162794635,0,0.955403687306
2011-07-25 09:00:01,0.383610309897,0,0.923827339084
2011-07-25 10:00:01,0.38890293342,0,0.874100852707
2011-07-25 11:00:01,0.42045102884,0,0.78053663443
2011-07-25 12:00:01,0.439656955198,0,0.63699877204
2011-07-25 13:00:01,0.443622058985,0,0.536654521935
2011-07-25 14:00:01,0.462683887164,0,0.674606283059
2011-07-25 15:00:01,0.479607874909,0,0.75316894989
2011-07-25 16:00:01,0.400252166182,0,0.810961788053
2011-07-25 17:00:01,0.279924554004,0,0.812291400088
2011-07-25 18:00:01,0.228197555675,0,0.71641819233
2011-07-25 19:00:01,0.222683665974,0,0.659731244763
2011-07-25 20:00:01,0.185825203302,0,0.582848232185
2011-07-25 21:00:01,0.209366498952,0,0.500536496453
2011-07-25 22:00:01,0.243324182215,0,0.57814959595
2011-07-25 23:00:01,0.225549090558,0,0.660805394679
2011-07-26 00:00:01,0.199375169707,0,0.750885648303
2011-07-26 01:00:01,0.115116843988,0,0.790666598084
2011-07-26 02:00:01,0.101633558151,0,0.863199375862
2011-07-26 03:00:01,0.0753439112239,0,0.901611913186
2011-07-26 04:00:01,0.118976066716,0,0.918555826896
2011-07-26 05:00:01,0.212052183453,0,0.920079669068
2011-07-26 06:00:01,0.212052183453,0,0.916280970417
2011-07-26 07:00:01,0.228450712672,0,0.913432684239
2011-07-26 08:00:01,0.554760132684,0,0.856301940573
2011-07-26 09:00:01,0.418341525452,0,0.810342729295
2011-07-26 10:00:01,0.446299711126,0,0.739761831135
2011-07-26 11:00:01,0.393150190545,0,0.646638586542
2011-07-26 12:00:01,0.412857944476,0,0.531131498162
2011-07-26 13:00:01,0.343995647345,0,0.571128671962
2011-07-26 14:00:01,0.445257978232,0,0.688576632543
2011-07-26 15:00:01,0.415162951764,0,0.753768213179
2011-07-26 16:00:01,0.274411495388,0,0.772206978656
2011-07-26 17:00:01,0.279119342732,0,0.786598484652
2011-07-26 18:00:01,0.317010141117,0,0.714613895666
2011-07-26 19:00:01,0.254558326243,0,0.659102028641
2011-07-26 20:00:01,0.203366165307,0,0.570359018241
2011-07-26 21:00:01,0.191526514606,0,0.50632819069
2011-07-26 22:00:01,0.216584439698,0,0.580779914567
2011-07-26 23:00:01,0.256451880067,0,0.613232561822
2011-07-27 00:00:01,0.221348465885,0,0.692255907025
2011-07-27 01:00:01,0.219103036941,0,0.754926912525
2011-07-27 02:00:01,0.166322881888,0,0.786292539662
2011-07-27 03:00:01,0.0844394474012,0,0.836487145553
2011-07-27 04:00:01,0.149319054724,0,0.873016555743
2011-07-27 05:00:01,0.405285259546,0,0.840465696763
2011-07-27 06:00:01,0.245886160243,0,0.830373032178
2011-07-27 07:00:01,0.295776929855,0,0.803937673519
2011-07-27 08:00:01,0.487465159019,0,0.724503387307
2011-07-27 09:00:01,0.35926307571,0,0.690680949844
2011-07-27 10:00:01,0.436182377548,0,0.61484710962
2011-07-27 11:00:01,0.460622442336,0,0.524162823338
2011-07-27 12:00:01,0.416794606579,0,0.571165609139
2011-07-27 13:00:01,0.440537988263,0,0.698634636486
2011-07-27 14:00:01,0.470557791687,0,0.796226404208
2011-07-27 15:00:01,0.422496622122,0,0.800862463923
2011-07-27 16:00:01,0.415056361004,0,0.842976736807
2011-07-27 17:00:01,0.388076448882,0,0.863282975141
2011-07-27 18:00:01,0.326597510972,0,0.826668225203
2011-07-27 19:00:01,0.305592144208,0,0.813177092546
2011-07-27 20:00:01,0.326107149619,0,0.783543059093
2011-07-27 21:00:01,0.334357949219,0,0.746416803136
2011-07-27 22:00:01,0.386709685576,0,0.737101708975
2011-07-27 23:00:01,0.302684806956,0,0.692298144994
2011-07-28 00:00:01,0.259985083082,0,0.618159576527
2011-07-28 01:00:01,0.296208024158,0,0.571293717839
2011-07-28 02:00:01,0.239590782123,0,0.504618210468
2011-07-28 03:00:01,0.217902347855,0,0.560188407361
2011-07-28 04:00:01,0.257930313702,0,0.585984933779
2011-07-28 05:00:01,0.418735089521,0,0.543335323662
2011-07-28 06:00:01,0.268041331458,0,0.565317814075
2011-07-28 07:00:01,0.175615429707,0,0.624202909837
2011-07-28 08:00:01,0.465355114361,0,0.595298896926
2011-07-28 09:00:01,0.434324079552,0,0.545812934894
2011-07-28 10:00:01,0.48866780609,0,0.541408899863
2011-07-28 11:00:01,0.406233033831,0,0.582926349979