timestamp,value,is_anomaly,anomaly_score
2011-07-01 00:15:01,0.06412422087433277,0,0.06412422087433277
2011-07-01 01:15:01,0.029283335867045894,0,0.029283335867045894
2011-07-01 02:15:01,0.039287709243965074,0,0.039287709243965074
2011-07-01 03:15:01,0.03897423162728516,0,0.03897423162728516
2011-07-01 04:15:01,0.03925905878844893,0,0.03925905878844893
2011-07-01 05:15:01,0.0395335232772598,0,0.0395335232772598
2011-07-01 06:15:01,0.03772358660699002,0,0.03772358660699002
2011-07-01 07:15:01,0.042670592180625945,0,0.042670592180625945
2011-07-01 08:15:01,0.03534144892123095,0,0.03534144892123095
2011-07-01 09:15:01,0.04951202104752458,0,0.04951202104752458
2011-07-01 10:15:01,0.06167447265406688,0,0.06167447265406688
2011-07-01 11:15:01,0.10747380400496577,0,0.10747380400496577
2011-07-01 12:15:01,0.11039773441754124,0,0.11039773441754124
2011-07-01 13:15:01,0.09079883559245784,0,0.09079883559245784
2011-07-01 14:15:01,0.09546153745945396,0,0.09546153745945396
2011-07-01 15:15:01,0.050319799955815966,0,0.050319799955815966
2011-07-01 16:15:01,0.06278276135253205,0,0.06278276135253205
2011-07-01 17:15:01,0.046097305030553634,0,0.046097305030553634
2011-07-01 18:15:01,0.038452163612326735,0,0.038452163612326735
2011-07-01 19:15:01,0.05517303865019762,0,0.05517303865019762
2011-07-01 20:15:01,0.14075347151431106,0,0.14075347151431106
2011-07-01 21:15:01,0.0196105827949716,0,0.0196105827949716
2011-07-01 22:15:01,0.2791291917676899,0,0.2791291917676899
2011-07-01 23:15:01,0.5493163846465049,0,0.5493163846465049
2011-07-02 00:15:01,0.5041773334745967,0,0.5041773334745967
2011-07-02 01:15:01,0.11902124422714462,0,0.11902124422714462
2011-07-02 02:15:01,0.07432421343472549,0,0.07432421343472549
2011-07-02 03:15:01,0.09739822713407888,0,0.09739822713407888
2011-07-02 04:15:01,0.1028404218698688,0,0.1028404218698688
2011-07-02 05:15:01,0.0954984467675304,0,0.0954984467675304
2011-07-02 06:15:01,0.10214022707525786,0,0.10214022707525786
2011-07-02 07:15:01,0.12569424983586389,0,0.12569424983586389
2011-07-02 08:15:01,0.0957025235415514,0,0.0957025235415514
2011-07-02 09:15:01,0.11765261835352565,0,0.11765261835352565
2011-07-02 10:15:01,0.11718634151132172,0,0.11718634151132172
2011-07-02 11:15:01,0.17922552773278433,0,0.17922552773278433
2011-07-02 12:15:01,0.3267836483233035,0,0.3267836483233035
2011-07-02 13:15:01,0.2663233556819156,0,0.2663233556819156
2011-07-02 14:15:01,0.131115613902379,0,0.131115613902379
2011-07-02 15:15:01,0.17209126005446804,0,0.17209126005446804
2011-07-02 16:15:01,0.10438257608036987,0,0.10438257608036987
2011-07-02 17:15:01,0.09390139501835204,0,0.09390139501835204
2011-07-02 18:15:01,0.1796091414599831,0,0.1796091414599831
2011-07-02 19:15:01,0.08736314920232399,0,0.08736314920232399
2011-07-02 20:15:01,0.08263111908378702,0,0.08263111908378702
2011-07-02 21:15:01,0.10822322175433202,0,0.10822322175433202
2011-07-02 22:15:01,0.09784543163177306,0,0.09784543163177306
2011-07-02 23:15:01,0.2495942176175369,0,0.2495942176175369
2011-07-03 00:15:01,0.22469323979531794,0,0.22469323979531794
2011-07-03 01:15:01,0.13926500807069614,0,0.13926500807069614
2011-07-03 02:15:01,0.12597408357772732,0,0.12597408357772732
2011-07-03 03:15:01,0.055773017980920714,0,0.055773017980920714
2011-07-03 04:15:01,0.10899104999388454,0,0.10899104999388454
2011-07-03 05:15:01,0.10942757933159657,0,0.10942757933159657
2011-07-03 06:15:01,0.12087499876617698,0,0.12087499876617698
2011-07-03 07:15:01,0.1408053594473891,0,0.1408053594473891
2011-07-03 08:15:01,0.11974917466745785,0,0.11974917466745785
2011-07-03 09:15:01,0.1262152600153475,0,0.1262152600153475
2011-07-03 10:15:01,0.1721229277949033,0,0.1721229277949033
2011-07-03 11:15:01,0.3241977275263328,0,0.3241977275263328
2011-07-03 12:15:01,0.3591027663470768,0,0.3591027663470768
2011-07-03 13:15:01,0.27323971208509784,0,0.27323971208509784
2011-07-03 14:15:01,0.12512200072265114,0,0.12512200072265114
2011-07-03 15:15:01,0.1948832366027922,0,0.1948832366027922
2011-07-03 16:15:01,0.1116799814694742,0,0.1116799814694742
2011-07-03 17:15:01,0.1148986725818054,0,0.1148986725818054
2011-07-03 18:15:01,0.09112339339065877,0,0.09112339339065877
2011-07-03 19:15:01,0.12140193722338988,0,0.12140193722338988
2011-07-03 20:15:01,0.08611557478032203,0,0.08611557478032203
2011-07-03 21:15:01,0.11909488666020338,0,0.11909488666020338
2011-07-03 22:15:01,0.15022341083612534,0,0.15022341083612534
2011-07-03 23:15:01,0.13195654258888287,0,0.13195654258888287
2011-07-04 00:15:01,0.2320127474671376,0,0.2320127474671376
2011-07-04 01:15:01,0.1393636925469087,0,0.1393636925469087
2011-07-04 02:15:01,0.06554847796681651,0,0.06554847796681651
2011-07-04 03:15:01,0.10048082718604136,0,0.10048082718604136
2011-07-04 04:15:01,0.11779376672489035,0,0.11779376672489035
2011-07-04 05:15:01,0.11097503833245727,0,0.11097503833245727
2011-07-04 06:15:01,0.10102343668429654,0,0.10102343668429654
2011-07-04 07:15:01,0.12705691818447554,0,0.12705691818447554
2011-07-04 08:15:01,0.12862931692833726,0,0.12862931692833726
2011-07-04 09:15:01,0.11037890603215003,0,0.11037890603215003
2011-07-04 10:15:01,0.16834691086631728,0,0.16834691086631728
2011-07-04 11:15:01,0.391469606548527,0,0.391469606548527
2011-07-04 12:15:01,0.3956958560760137,0,0.3956958560760137
2011-07-04 13:15:01,0.3305974110417628,0,0.3305974110417628
2011-07-04 14:15:01,0.23552023624221485,0,0.23552023624221485
2011-07-04 15:15:01,0.1786586901890258,0,0.1786586901890258
2011-07-04 16:15:01,0.07347808157366224,0,0.07347808157366224
2011-07-04 17:15:01,0.0630896734561639,0,0.0630896734561639
2011-07-04 18:15:01,0.0539517322709346,0,0.0539517322709346
2011-07-04 19:15:01,0.05090005352493858,0,0.05090005352493858
2011-07-04 20:15:01,0.07746987411107842,0,0.07746987411107842
2011-07-04 21:15:01,0.044926050833303886,0,0.044926050833303886
2011-07-04 22:15:01,0.09140160119429856,0,0.09140160119429856
2011-07-04 23:15:01,0.16541958221327965,0,0.16541958221327965
2011-07-05 00:15:01,0.1795685506357198,0,0.1795685506357198
2011-07-05 01:15:01,0.07567488250871919,0,0.07567488250871919
2011-07-05 02:15:01,0.06262275346024795,0,0.06262275346024795
2011-07-05 03:15:01,0.04539812714763811,0,0.04539812714763811
2011-07-05 04:15:01,0.060480469464369385,0,0.060480469464369385
2011-07-05 05:15:01,0.05556174669709238,0,0.05556174669709238
2011-07-05 06:15:01,0.06539512013617113,0,0.06539512013617113
2011-07-05 07:15:01,0.06610008547495108,0,0.06610008547495108
2011-07-05 08:15:01,0.058840029072039286,0,0.058840029072039286
2011-07-05 09:15:01,0.053265204677459564,0,0.053265204677459564
2011-07-05 10:15:01,0.11934815847422955,0,0.11934815847422955
2011-07-05 11:15:01,0.12879090290742815,0,0.12879090290742815
2011-07-05 12:15:01,0.1975491415016912,0,0.1975491415016912
2011-07-05 13:15:01,0.17413853083910175,0,0.17413853083910175
2011-07-05 14:15:01,0.07420754094799024,0,0.07420754094799024
2011-07-05 15:15:01,0.1093672630051034,0,0.1093672630051034
2011-07-05 16:15:01,0.0812623027049118,0,0.0812623027049118
2011-07-05 17:15:01,0.04810995613927002,0,0.04810995613927002
2011-07-05 18:15:01,0.08909818443154671,0,0.08909818443154671
2011-07-05 19:15:01,0.05919076742579275,0,0.05919076742579275
2011-07-05 20:15:01,0.07564184431162561,0,0.07564184431162561
2011-07-05 21:15:01,0.06742703418348864,0,0.06742703418348864
2011-07-05 22:15:01,0.047227784358632105,0,0.047227784358632105
2011-07-05 23:15:01,0.12253476484429715,0,0.12253476484429715
2011-07-06 00:15:01,0.1540128591058048,0,0.1540128591058048
2011-07-06 01:15:01,0.06931240390950484,0,0.06931240390950484
2011-07-06 02:15:01,0.04458451234649684,0,0.04458451234649684
2011-07-06 03:15:01,0.05320328667037722,0,0.05320328667037722
2011-07-06 04:15:01,0.060979450550883066,0,0.060979450550883066
2011-07-06 05:15:01,0.05463879486037337,0,0.05463879486037337
2011-07-06 06:15:01,0.06300108199810946,0,0.06300108199810946
2011-07-06 07:15:01,0.053474053516801436,0,0.053474053516801436
2011-07-06 08:15:01,0.08860680713001708,0,0.08860680713001708
2011-07-06 09:15:01,0.0986825498724836,0,0.0986825498724836
2011-07-06 10:15:01,0.07991368999171639,0,0.07991368999171639
2011-07-06 11:15:01,0.10595907269608136,0,0.10595907269608136
2011-07-06 12:15:01,0.03958383761141649,0,0.03958383761141649
2011-07-06 13:15:01,0.18229539454956786,0,0.18229539454956786
2011-07-06 14:15:01,0.12641991783582654,0,0.12641991783582654
2011-07-06 15:15:01,0.06990666219932022,0,0.06990666219932022
2011-07-06 16:15:01,0.06415240215513346,0,0.06415240215513346
2011-07-06 17:15:01,0.06437717363034236,0,0.06437717363034236
2011-07-06 18:15:01,0.08472746511959874,0,0.08472746511959874
2011-07-06 19:15:01,0.07448553690984946,0,0.07448553690984946
2011-07-06 20:15:01,0.04557820950748005,0,0.04557820950748005
2011-07-06 21:15:01,0.07193748446818145,0,0.07193748446818145
2011-07-06 22:15:01,0.07492312496405222,0,0.07492312496405222
2011-07-06 23:15:01,0.0783191169774828,0,0.0783191169774828
2011-07-07 00:15:01,0.05865442552825851,0,0.05865442552825851
2011-07-07 01:15:01,0.06660660105258875,0,0.06660660105258875
2011-07-07 02:15:01,0.064009755648633,0,0.064009755648633
2011-07-07 05:15:01,0.06902680584912327,0,0.06902680584912327
2011-07-07 06:15:01,0.051719954768503454,0,0.051719954768503454
2011-07-07 07:15:01,0.08902536932644155,0,0.08902536932644155
2011-07-07 08:15:01,0.0599820397766745,0,0.0599820397766745
2011-07-07 09:15:01,0.0980258103214899,0,0.0980258103214899
2011-07-07 10:15:01,0.1021879625239476,0,0.1021879625239476
2011-07-07 11:15:01,0.15024482217199736,0,0.15024482217199736
2011-07-07 12:15:01,0.24535505746285485,0,0.24535505746285485
2011-07-07 13:15:01,0.21341098809831746,0,0.21341098809831746
2011-07-07 14:15:01,0.15511636294497333,0,0.15511636294497333
2011-07-07 15:15:01,0.10190686467240342,0,0.10190686467240342
2011-07-07 16:15:01,0.09367792999424804,0,0.09367792999424804
2011-07-07 17:15:01,0.07899466945714756,0,0.07899466945714756
2011-07-07 18:15:01,0.08360874807425113,0,0.08360874807425113
2011-07-07 19:15:01,0.13458925542391842,0,0.13458925542391842
2011-07-07 20:15:01,0.1705609521200686,0,0.1705609521200686
2011-07-07 21:15:01,0.1007294066218215,0,0.1007294066218215
2011-07-07 22:15:01,0.1398432178040789,0,0.1398432178040789
2011-07-07 23:15:01,0.07106175964671421,0,0.07106175964671421
2011-07-08 00:15:01,0.048295788033605375,0,0.048295788033605375
2011-07-08 01:15:01,0.09644541865150097,0,0.09644541865150097
2011-07-08 02:15:01,0.08314763763145071,0,0.08314763763145071
2011-07-08 06:15:01,0.09411360243615807,0,0.09411360243615807
2011-07-08 09:15:01,0.10535896766095154,0,0.10535896766095154
2011-07-08 10:15:01,0.07883135347503548,0,0.07883135347503548
2011-07-08 14:15:01,0.15155961384507052,0,0.15155961384507052
2011-07-08 16:15:01,0.5677104041373158,0,0.5677104041373158
2011-07-08 17:15:01,0.13729779775007694,0,0.13729779775007694
2011-07-08 18:15:01,0.09138587094821984,0,0.09138587094821984
2011-07-08 19:15:01,0.14775949301413965,0,0.14775949301413965
2011-07-08 20:15:01,0.19953572904738354,0,0.19953572904738354
2011-07-08 21:15:01,0.16864047465358115,0,0.16864047465358115
2011-07-08 22:15:01,0.08955220063374336,0,0.08955220063374336
2011-07-08 23:15:01,0.17386984716472,0,0.17386984716472
2011-07-09 09:15:01,0.3083931735364573,0,0.3083931735364573
2011-07-09 15:15:01,0.0954869984921738,0,0.0954869984921738
2011-07-09 17:15:01,0.11200760741606658,0,0.11200760741606658
2011-07-09 18:15:01,0.1650214316252144,0,0.1650214316252144
2011-07-09 19:15:01,0.09162857014962776,0,0.09162857014962776
2011-07-09 20:15:01,0.1293753921401212,0,0.1293753921401212
2011-07-09 21:15:01,0.07479365777702977,0,0.07479365777702977
2011-07-09 22:15:01,0.16891336603588292,0,0.16891336603588292
2011-07-09 23:15:01,0.2073369904794705,0,0.2073369904794705
2011-07-10 00:15:01,0.1809840481724747,0,0.1809840481724747
2011-07-10 01:15:01,0.13720744246027955,0,0.13720744246027955
2011-07-10 02:15:01,0.1216736000451608,0,0.1216736000451608
2011-07-10 03:15:01,0.06426370710411915,0,0.06426370710411915
2011-07-10 04:15:01,0.09509494271767158,0,0.09509494271767158
2011-07-10 05:15:01,0.09235186705998367,0,0.09235186705998367
2011-07-10 06:15:01,0.10396897108250584,0,0.10396897108250584
2011-07-10 07:15:01,0.08008030342654691,0,0.08008030342654691
2011-07-10 08:15:01,0.19880659308640827,0,0.19880659308640827
2011-07-10 09:15:01,0.21813128274858348,0,0.21813128274858348
2011-07-10 10:15:01,0.16264419013135342,0,0.16264419013135342
2011-07-10 11:15:01,0.2215743665314171,0,0.2215743665314171
2011-07-10 12:15:01,0.27405661720480845,0,0.27405661720480845
2011-07-10 13:15:01,0.2803175224546609,0,0.2803175224546609
2011-07-10 14:15:01,0.20145647801189848,0,0.20145647801189848
2011-07-10 15:15:01,0.2268385681751697,0,0.2268385681751697
2011-07-10 16:15:01,0.20287277295000108,0,0.20287277295000108
2011-07-10 17:15:01,0.190589035882767,0,0.190589035882767
2011-07-10 18:15:01,0.11964728619334775,0,0.11964728619334775
2011-07-10 19:15:01,0.10540085459365256,0,0.10540085459365256
2011-07-10 20:15:01,0.1096492562731566,0,0.1096492562731566
2011-07-10 21:15:01,0.12260733717810267,0,0.12260733717810267
2011-07-10 22:15:01,0.1069729731760459,0,0.1069729731760459
2011-07-10 23:15:01,0.11762248897127275,0,0.11762248897127275
2011-07-11 00:15:01,0.0978781106734188,0,0.0978781106734188
2011-07-11 01:15:01,0.12587456226598506,0,0.12587456226598506
2011-07-11 02:15:01,0.08566956248605072,0,0.08566956248605072
2011-07-11 03:15:01,0.10355077588696278,0,0.10355077588696278
2011-07-11 04:15:01,0.09807572806390404,0,0.09807572806390404
2011-07-11 05:15:01,0.1085140218697888,0,0.1085140218697888
2011-07-11 06:15:01,0.10390609084279248,0,0.10390609084279248
2011-07-11 07:15:01,0.11940507775310405,0,0.11940507775310405
2011-07-11 08:15:01,0.10006648320802616,0,0.10006648320802616
2011-07-11 09:15:01,0.09775022861067867,0,0.09775022861067867
2011-07-11 10:15:01,0.23736199181614545,0,0.23736199181614545
2011-07-11 11:15:01,0.395538836862813,0,0.395538836862813
2011-07-11 12:15:01,0.2959407515263906,0,0.2959407515263906
2011-07-11 13:15:01,0.2794144054108702,0,0.2794144054108702
2011-07-11 14:15:01,0.2639056136661689,0,0.2639056136661689
2011-07-11 15:15:01,0.15706221385409014,0,0.15706221385409014
2011-07-11 16:15:01,0.1210452797889621,0,0.1210452797889621
2011-07-11 17:15:01,0.106820923328008,0,0.106820923328008
2011-07-11 18:15:01,0.0557528079533751,0,0.0557528079533751
2011-07-11 19:15:01,0.05498870933004423,0,0.05498870933004423
2011-07-11 20:15:01,0.056889776030044276,0,0.056889776030044276
2011-07-11 21:15:01,0.0488553328058876,0,0.0488553328058876
2011-07-11 22:15:01,0.06329856634459557,0,0.06329856634459557
2011-07-11 23:15:01,0.05464040947673288,0,0.05464040947673288
2011-07-12 00:15:01,0.04149139066688365,0,0.04149139066688365
2011-07-12 01:15:01,0.06886170355313165,0,0.06886170355313165
2011-07-12 02:15:01,0.08364044883946975,0,0.08364044883946975
2011-07-12 03:15:01,0.0801119551766479,0,0.0801119551766479
2011-07-12 04:15:01,0.08298131288887955,0,0.08298131288887955
2011-07-12 05:15:01,0.0837507443312785,0,0.0837507443312785
2011-07-12 06:15:01,0.09163228979359682,0,0.09163228979359682
2011-07-12 07:15:01,0.08086772668812665,0,0.08086772668812665
2011-07-12 08:15:01,0.15422935262255652,0,0.15422935262255652
2011-07-12 09:15:01,0.11584777745697487,0,0.11584777745697487
2011-07-12 10:15:01,0.11781803083205425,0,0.11781803083205425
2011-07-12 11:15:01,0.11517602044171192,0,0.11517602044171192
2011-07-12 12:15:01,0.17862693621514608,0,0.17862693621514608
2011-07-12 13:15:01,0.09066783684254212,0,0.09066783684254212
2011-07-12 14:15:01,0.1908295004952643,0,0.1908295004952643
2011-07-12 15:15:01,0.12271369453056685,0,0.12271369453056685
2011-07-12 16:15:01,0.1142805379313372,0,0.1142805379313372
2011-07-12 17:15:01,0.11464148694958018,0,0.11464148694958018
2011-07-12 18:15:01,0.09431944902020876,0,0.09431944902020876
2011-07-12 19:15:01,0.09151394828859534,0,0.09151394828859534
2011-07-12 20:15:01,0.11521156855851974,0,0.11521156855851974
2011-07-12 21:15:01,0.12924667965024508,0,0.12924667965024508
2011-07-12 22:15:01,0.11617861442487135,0,0.11617861442487135
2011-07-12 23:15:01,0.07397574338605302,0,0.07397574338605302
2011-07-13 00:15:01,0.1096525076933688,0,0.1096525076933688
2011-07-13 01:15:01,0.131497245736586,0,0.131497245736586
2011-07-13 02:15:01,0.1119309865571534,0,0.1119309865571534
2011-07-13 03:15:01,0.09543815320857192,0,0.09543815320857192
2011-07-13 04:15:01,0.09373003698545852,0,0.09373003698545852
2011-07-13 05:15:01,0.09102661299524796,0,0.09102661299524796
2011-07-13 06:15:01,0.10072248344523428,0,0.10072248344523428
2011-07-13 07:15:01,0.11266734230174852,0,0.11266734230174852
2011-07-13 08:15:01,0.1372857042297636,0,0.1372857042297636
2011-07-13 09:15:01,0.13773453950840514,1,0.13773453950840514
2011-07-13 10:15:01,0.13099712461039162,1,0.13099712461039162
2011-07-13 11:15:01,0.19065214947664685,1,0.19065214947664685
2011-07-13 12:15:01,0.2203532180410276,1,0.2203532180410276
2011-07-13 13:15:01,0.17539280744005722,1,0.17539280744005722
2011-07-13 14:15:01,0.06728792853511258,1,0.06728792853511258
2011-07-13 15:15:01,0.11972165690010846,1,0.11972165690010846
2011-07-13 16:15:01,0.10254192808831412,1,0.10254192808831412
2011-07-13 17:15:01,0.11183481368289612,1,0.11183481368289612
2011-07-13 18:15:01,0.09441534817656368,1,0.09441534817656368
2011-07-13 19:15:01,0.09995676318133327,1,0.09995676318133327
2011-07-13 20:15:01,0.11316581724052155,1,0.11316581724052155
2011-07-13 21:15:01,0.12103133678732154,1,0.12103133678732154
2011-07-13 22:15:01,0.0833447135252261,1,0.0833447135252261
2011-07-13 23:15:01,0.10708554377726903,1,0.10708554377726903
2011-07-14 00:15:01,0.09271792493172157,1,0.09271792493172157
2011-07-14 01:15:01,0.08165039896334812,1,0.08165039896334812
2011-07-14 02:15:01,0.06569547807896771,1,0.06569547807896771
2011-07-14 03:15:01,0.059605084686926026,1,0.059605084686926026
2011-07-14 04:15:01,0.0583140269667719,1,0.0583140269667719
2011-07-14 05:15:01,0.0591905188997013,1,0.0591905188997013
2011-07-14 06:15:01,0.0556479567784452,1,0.0556479567784452
2011-07-14 07:15:01,0.09869901530311948,1,0.09869901530311948
2011-07-14 08:15:01,0.07190876395275247,1,0.07190876395275247
2011-07-14 09:15:01,0.09414555838246996,1,0.09414555838246996
2011-07-14 10:15:01,0.8707514464144314,1,0.8707514464144314
2011-07-14 11:15:01,0.8945075990454743,1,0.8945075990454743
2011-07-14 12:15:01,0.041935329674238235,1,0.041935329674238235
2011-07-14 13:15:01,0.19641735335601468,1,0.19641735335601468
2011-07-14 14:15:01,0.18148871818898965,1,0.18148871818898965
2011-07-14 15:15:01,0.07064970851399878,1,0.07064970851399878
2011-07-14 16:15:01,0.10310450346134774,1,0.10310450346134774
2011-07-14 17:15:01,0.10259571022581099,1,0.10259571022581099
2011-07-14 18:15:01,0.07127376270539602,1,0.07127376270539602
2011-07-14 19:15:01,0.06679422073783943,1,0.06679422073783943
2011-07-14 20:15:01,0.07742173467732741,1,0.07742173467732741
2011-07-14 21:15:01,0.06218017434258578,1,0.06218017434258578
2011-07-14 22:15:01,0.07878968265905732,1,0.07878968265905732
2011-07-14 23:15:01,0.052786862352996455,1,0.052786862352996455
2011-07-15 00:15:01,0.061378229178015976,1,0.061378229178015976
2011-07-15 01:15:01,0.08572152478744785,1,0.08572152478744785
2011-07-15 02:15:01,0.06745248989011672,1,0.06745248989011672
2011-07-15 03:15:01,0.06423900374010284,1,0.06423900374010284
2011-07-15 04:15:01,0.06054285438066881,1,0.06054285438066881
2011-07-15 05:15:01,0.05526390803657583,1,0.05526390803657583
2011-07-15 06:15:01,0.07341216292926729,1,0.07341216292926729
2011-07-15 07:15:01,0.05894154299558318,1,0.05894154299558318
2011-07-15 08:15:01,0.07538072432359076,1,0.07538072432359076
2011-07-15 09:15:01,0.09616120126482956,1,0.09616120126482956
2011-07-15 10:15:01,0.10824026814801738,1,0.10824026814801738
2011-07-15 11:15:01,0.11819178381597414,1,0.11819178381597414
2011-07-15 12:15:01,0.17662047722527646,0,0.17662047722527646
2011-07-15 13:15:01,0.18609079701293493,0,0.18609079701293493
2011-07-15 14:15:01,0.11602117075833852,0,0.11602117075833852
2011-07-15 15:15:01,0.07140984722472117,0,0.07140984722472117
2011-07-15 16:15:01,0.09889630993445683,0,0.09889630993445683
2011-07-15 17:15:01,0.07055150903069259,0,0.07055150903069259
2011-07-15 18:15:01,0.0596743678690788,0,0.0596743678690788
2011-07-15 19:15:01,0.0790338506809932,0,0.0790338506809932
2011-07-15 20:15:01,0.050338920645159706,0,0.050338920645159706
2011-07-15 21:15:01,0.07436449773236156,0,0.07436449773236156
2011-07-15 22:15:01,0.06281225098474696,0,0.06281225098474696
2011-07-15 23:15:01,0.028041612760145062,0,0.028041612760145062
2011-07-16 00:15:01,0.08328078579200161,0,0.08328078579200161
2011-07-16 01:15:01,0.09328399497360533,0,0.09328399497360533
2011-07-16 02:15:01,0.09552590277532916,0,0.09552590277532916
2011-07-16 03:15:01,0.0790107984084223,0,0.0790107984084223
2011-07-16 04:15:01,0.07413465417881371,0,0.07413465417881371
2011-07-16 05:15:01,0.05867468423326755,0,0.05867468423326755
2011-07-16 06:15:01,0.05941679117037851,0,0.05941679117037851
2011-07-16 07:15:01,0.053262417287460666,0,0.053262417287460666
2011-07-16 08:15:01,0.0780613650611179,0,0.0780613650611179
2011-07-16 09:15:01,0.09034283026081913,0,0.09034283026081913
2011-07-16 10:15:01,0.13014579644140764,0,0.13014579644140764
2011-07-16 11:15:01,0.1443842262696437,0,0.1443842262696437
2011-07-16 12:15:01,0.15113286784343127,0,0.15113286784343127
2011-07-16 13:15:01,0.2002023060817092,0,0.2002023060817092
2011-07-16 14:15:01,0.0770698883738973,0,0.0770698883738973
2011-07-16 15:15:01,0.06856320126892376,0,0.06856320126892376
2011-07-16 16:15:01,0.10288948885354557,0,0.10288948885354557
2011-07-16 17:15:01,0.05603510795597416,0,0.05603510795597416
2011-07-16 18:15:01,0.055610219582673086,0,0.055610219582673086
2011-07-16 19:15:01,0.08883450052225228,0,0.08883450052225228
2011-07-16 22:15:01,0.06420773296333214,0,0.06420773296333214
2011-07-16 23:15:01,0.07447077053563213,0,0.07447077053563213
2011-07-17 00:15:01,0.03840060176408867,0,0.03840060176408867
2011-07-17 01:15:01,0.08232090134535391,0,0.08232090134535391
2011-07-17 02:15:01,0.08406788905897654,0,0.08406788905897654
2011-07-17 03:15:01,0.0759579019719462,0,0.0759579019719462
2011-07-17 04:15:01,0.07577996524804782,0,0.07577996524804782
2011-07-17 05:15:01,0.06077429462476035,0,0.06077429462476035
2011-07-17 06:15:01,0.06061133454556239,0,0.06061133454556239
2011-07-17 07:15:01,0.06008602342582785,0,0.06008602342582785
2011-07-17 08:15:01,0.09696526131851893,0,0.09696526131851893
2011-07-17 09:15:01,0.08335186597699751,0,0.08335186597699751
2011-07-17 10:15:01,0.12905589273622325,0,0.12905589273622325
2011-07-17 11:15:01,0.13174655868573634,0,0.13174655868573634
2011-07-17 12:15:01,0.14572258814956884,0,0.14572258814956884
2011-07-17 13:15:01,0.09416468127761957,0,0.09416468127761957
2011-07-17 14:15:01,0.12274101758002298,0,0.12274101758002298
2011-07-17 15:15:01,0.13978172446658815,0,0.13978172446658815
2011-07-17 16:15:01,0.05663055310432868,0,0.05663055310432868
2011-07-17 17:15:01,0.08948420733191778,0,0.08948420733191778
2011-07-17 18:15:01,0.04680276667435627,0,0.04680276667435627
2011-07-17 19:15:01,0.07554349804525154,0,0.07554349804525154
2011-07-17 20:15:01,0.07463544077001978,0,0.07463544077001978
2011-07-17 21:15:01,0.04685452308974921,0,0.04685452308974921
2011-07-17 22:15:01,0.07010105530753794,0,0.07010105530753794
2011-07-17 23:15:01,0.06149675522546275,0,0.06149675522546275
2011-07-18 00:15:01,0.036336410817258434,0,0.036336410817258434
2011-07-18 01:15:01,0.07451574894199155,0,0.07451574894199155
2011-07-18 02:15:01,0.07012756105515687,0,0.07012756105515687
2011-07-18 03:15:01,0.06896968073388783,0,0.06896968073388783
2011-07-18 04:15:01,0.059393924519540224,0,0.059393924519540224
2011-07-18 05:15:01,0.05380556281273053,0,0.05380556281273053
2011-07-18 06:15:01,0.058992618741580474,0,0.058992618741580474
2011-07-18 07:15:01,0.06214607098041078,0,0.06214607098041078
2011-07-18 08:15:01,0.10351751547929346,0,0.10351751547929346
2011-07-18 09:15:01,0.09510141849753036,0,0.09510141849753036
2011-07-18 10:15:01,0.10516544902262856,0,0.10516544902262856
2011-07-18 11:15:01,0.1309706990435662,0,0.1309706990435662
2011-07-18 12:15:01,0.20577964749246766,0,0.20577964749246766
2011-07-18 13:15:01,0.1508606970763135,0,0.1508606970763135
2011-07-18 14:15:01,0.06676521558300537,0,0.06676521558300537
2011-07-18 15:15:01,0.12725016140758136,0,0.12725016140758136
2011-07-18 16:15:01,0.07648785471468461,0,0.07648785471468461
2011-07-18 17:15:01,0.10816191355178924,0,0.10816191355178924
2011-07-18 18:15:01,0.0629654263967512,0,0.0629654263967512
2011-07-18 19:15:01,0.06277787119539735,0,0.06277787119539735
2011-07-18 20:15:01,0.08297127684583383,0,0.08297127684583383
2011-07-18 21:15:01,0.07248677586403486,0,0.07248677586403486
2011-07-18 22:15:01,0.04651532800209757,0,0.04651532800209757
2011-07-18 23:15:01,0.06497086600984935,0,0.06497086600984935
2011-07-19 00:15:01,0.054287287794817916,0,0.054287287794817916
2011-07-19 01:15:01,0.0844386663815851,0,0.0844386663815851
2011-07-19 02:15:01,0.07629378985651386,0,0.07629378985651386
2011-07-19 03:15:01,0.06470428117737427,0,0.06470428117737427
2011-07-19 04:15:01,0.06507584010394153,0,0.06507584010394153
2011-07-19 05:15:01,0.04709623619482143,0,0.04709623619482143
2011-07-19 06:15:01,0.05091579849896731,0,0.05091579849896731
2011-07-19 07:15:01,0.057454934540775826,0,0.057454934540775826
2011-07-19 08:15:01,0.08876706932207704,0,0.08876706932207704
2011-07-19 09:15:01,0.09564272521465934,1,0.09564272521465934
2011-07-19 10:15:01,0.13459907439254967,1,0.13459907439254967
2011-07-19 11:15:01,0.15073318831230695,1,0.15073318831230695
2011-07-19 12:15:01,0.1769288372842208,1,0.1769288372842208
2011-07-19 13:15:01,0.04745288286662476,1,0.04745288286662476
2011-07-19 14:15:01,0.15849524347585814,1,0.15849524347585814
2011-07-19 15:15:01,0.12799042378718614,1,0.12799042378718614
2011-07-19 16:15:01,0.07260388657054201,1,0.07260388657054201
2011-07-19 17:15:01,0.033812147517974185,1,0.033812147517974185
2011-07-19 18:15:01,0.0830063930628303,1,0.0830063930628303
2011-07-19 19:15:01,0.04614028344927839,1,0.04614028344927839
2011-07-19 20:15:01,0.07289220242598747,1,0.07289220242598747
2011-07-19 21:15:01,0.017882618284924767,1,0.017882618284924767
2011-07-19 22:15:01,0.06391014409380356,1,0.06391014409380356
2011-07-19 23:15:01,0.059405800956193786,1,0.059405800956193786
2011-07-20 00:15:01,0.03293714758452293,1,0.03293714758452293
2011-07-20 01:15:01,0.0729786637227061,1,0.0729786637227061
2011-07-20 02:15:01,0.0687412761938479,1,0.0687412761938479
2011-07-20 03:15:01,0.06693681487378451,1,0.06693681487378451
2011-07-20 04:15:01,0.05931146327657545,1,0.05931146327657545
2011-07-20 05:15:01,0.049997720261267316,1,0.049997720261267316
2011-07-20 06:15:01,0.06095855720727623,1,0.06095855720727623
2011-07-20 07:15:01,0.06391606469894605,1,0.06391606469894605
2011-07-20 08:15:01,0.058901203457331776,1,0.058901203457331776
2011-07-20 09:15:01,0.09047642140648664,1,0.09047642140648664
2011-07-20 10:15:01,0.954852905336251,1,0.954852905336251
2011-07-20 11:15:01,1.0,1,1.0
2011-07-20 12:15:01,0.03328378842015947,1,0.03328378842015947
2011-07-20 13:15:01,0.18639078051942512,1,0.18639078051942512
2011-07-20 14:15:01,0.13011004291633604,1,0.13011004291633604
2011-07-20 15:15:01,0.112616592792636,1,0.112616592792636
2011-07-20 16:15:01,0.05863907823772061,1,0.05863907823772061
2011-07-20 17:15:01,0.05417895427913121,1,0.05417895427913121
2011-07-20 18:15:01,0.0819084004704199,1,0.0819084004704199
2011-07-20 19:15:01,0.044690596215708235,1,0.044690596215708235
2011-07-20 20:15:01,0.06589883532312152,1,0.06589883532312152
2011-07-20 21:15:01,0.0493325724698851,1,0.0493325724698851
2011-07-20 22:15:01,0.05210352604072175,1,0.05210352604072175
2011-07-20 23:15:01,0.06180097781457276,1,0.06180097781457276
2011-07-21 00:15:01,0.013001494793672031,1,0.013001494793672031
2011-07-21 01:15:01,0.06704113166685917,1,0.06704113166685917
2011-07-21 02:15:01,0.06799930026181082,1,0.06799930026181082
2011-07-21 03:15:01,0.058195554598089186,1,0.058195554598089186
2011-07-21 04:15:01,0.05227841819966028,1,0.05227841819966028
2011-07-21 05:15:01,0.053648782558955686,1,0.053648782558955686
2011-07-21 06:15:01,0.05593178984056925,1,0.05593178984056925
2011-07-21 07:15:01,0.05248116849737598,1,0.05248116849737598
2011-07-21 08:15:01,0.057156690224815065,1,0.057156690224815065
2011-07-21 09:15:01,0.08646996101147099,1,0.08646996101147099
2011-07-21 10:15:01,0.09679391022160368,1,0.09679391022160368
2011-07-21 11:15:01,0.0992250359772529,1,0.0992250359772529
2011-07-21 12:15:01,0.10211771584718153,0,0.10211771584718153
2011-07-21 13:15:01,0.14196287765974175,0,0.14196287765974175
2011-07-21 14:15:01,0.1617598996299252,0,0.1617598996299252
2011-07-21 15:15:01,0.062406874136333376,0,0.062406874136333376
2011-07-21 16:15:01,0.08883010281857201,0,0.08883010281857201
2011-07-21 17:15:01,0.05731817078969782,0,0.05731817078969782
2011-07-21 18:15:01,0.10378645715659222,0,0.10378645715659222
2011-07-21 22:15:01,0.05471724021712345,0,0.05471724021712345
2011-07-22 00:15:01,0.039319222810224465,0,0.039319222810224465
2011-07-22 01:15:01,0.05896237642397451,0,0.05896237642397451
2011-07-22 02:15:01,0.0565575440540155,0,0.0565575440540155
2011-07-22 03:15:01,0.05505853672028952,0,0.05505853672028952
2011-07-22 04:15:01,0.04788800024365655,0,0.04788800024365655
2011-07-22 05:15:01,0.051159846454214786,0,0.051159846454214786
2011-07-22 06:15:01,0.061009673550854876,0,0.061009673550854876
2011-07-22 07:15:01,0.0728091848223968,0,0.0728091848223968
2011-07-22 08:15:01,0.05948749674380944,0,0.05948749674380944
2011-07-22 09:15:01,0.07542112401351604,0,0.07542112401351604
2011-07-22 10:15:01,0.06900677360621756,0,0.06900677360621756
2011-07-22 11:15:01,0.09561449704113838,0,0.09561449704113838
2011-07-22 12:15:01,0.1542431295948446,0,0.1542431295948446
2011-07-22 13:15:01,0.16084147118089326,0,0.16084147118089326