timestamp,value,is_anomaly,anomaly_score,S(t)_reward_low_FP_rate,S(t)_reward_low_FN_rate,S(t)_standard,predicted_anomaly
2015-07-28 11:56:00,0.0406767458603,0,0.5,0.0,0.0,0.0,0
2015-07-28 12:06:00,0.0280777537797,0,0.5,0.0,0.0,0.0,0
2015-07-28 12:25:00,0.0239380849532,0,0.5,0.0,0.0,0.0,0
2015-07-28 13:56:00,0.017818574514,0,0.5,0.0,0.0,0.0,0
2015-07-28 14:06:00,0.0145788336933,0,0.5,0.0,0.0,0.0,0
2015-07-28 14:16:00,0.0133189344852,0,0.5,0.0,0.0,0.0,0
2015-07-28 17:23:00,0.0266378689705,0,0.5,0.0,0.0,0.0,0
2015-07-28 22:03:00,0.0262778977682,0,0.5,0.0,0.0,0.0,0
2015-07-28 22:13:00,0.0278977681785,0,0.5,0.0,0.0,0.0,0
2015-07-28 22:22:00,0.0340172786177,0,0.5,0.0,0.0,0.0,0
2015-07-28 22:33:00,0.0424766018719,0,0.5,0.0,0.0,0.0,0
2015-07-28 22:43:00,0.0304175665947,0,0.5,0.0,0.0,0.0,0
2015-07-29 06:49:00,0.790856731461,0,0.5,0.0,0.0,0.0,0
2015-07-29 07:23:00,0.032037437005,0,0.5,0.0,0.0,0.0,0
2015-07-29 07:53:00,0.0338372930166,0,0.5,0.0,0.0,0.0,0
2015-07-29 08:13:00,0.0314974802016,0,0.5,0.0,0.0,0.0,0
2015-07-29 08:23:00,0.0388768898488,0,0.5,0.0,0.0,0.0,0
2015-07-29 08:51:00,0.0435565154788,0,0.5,0.0,0.0,0.0,0
2015-07-29 09:03:00,0.0433765298776,0,0.5,0.0,0.0,0.0,0
2015-07-29 09:13:00,0.0386969042477,0,0.5,0.0,0.0,0.0,0
2015-07-29 09:43:00,0.0352771778258,0,0.5,0.0,0.0,0.0,0
2015-07-29 10:03:00,0.0352771778258,0,0.5,0.0,0.0,0.0,0
2015-07-29 10:13:00,0.0475161987041,0,0.5,0.0,0.0,0.0,0
2015-07-29 10:17:00,0.0476961843053,0,0.5,0.0,0.0,0.0,0
2015-07-30 08:58:00,0.0521958243341,0,0.5,0.0,0.0,0.0,0
2015-07-30 09:07:00,0.0493160547156,0,0.5,0.0,0.0,0.0,0
2015-07-30 09:18:00,0.03437724982,0,0.5,0.0,0.0,0.0,0
2015-07-30 09:28:00,0.0300575953924,0,0.5,0.0,0.0,0.0,0
2015-07-30 09:37:00,0.0273578113751,0,0.5,0.0,0.0,0.0,0
2015-07-30 09:48:00,0.0338372930166,0,0.5,0.0,0.0,0.0,0
2015-07-30 09:57:00,0.0372570194384,0,0.5,0.0,0.0,0.0,0
2015-07-30 10:18:00,0.036717062635,0,0.5,0.0,0.0,0.0,0
2015-07-30 11:07:00,0.0586753059755,0,0.5,0.0,0.0,0.0,0
2015-07-30 12:35:00,0.00647948164147,0,0.5,0.0,0.0,0.0,0
2015-07-30 13:14:00,0.0172786177106,0,0.5,0.0,0.0,0.0,0
2015-07-30 13:38:00,0.017818574514,0,0.5,0.0,0.0,0.0,0
2015-07-30 14:14:00,0.0914326853852,0,0.5,0.0,0.0,0.0,0
2015-07-30 14:38:00,0.0293376529878,0,0.5,0.0,0.0,0.0,0
2015-07-30 14:48:00,0.0300575953924,0,0.5,0.0,0.0,0.0,0
2015-07-30 14:52:00,0.0358171346292,0,0.5,0.0,0.0,0.0,0
2015-07-30 15:08:00,0.0665946724262,0,0.5,0.0,0.0,0.0,0
2015-07-30 15:18:00,0.0712742980562,0,0.5,0.0,0.0,0.0,0
2015-07-30 15:27:00,0.104571634269,0,0.5,0.0,0.0,0.0,0
2015-07-30 15:37:00,0.122930165587,0,0.5,0.0,0.0,0.0,0
2015-07-30 15:48:00,0.139668826494,0,0.5,0.0,0.0,0.0,0
2015-07-30 15:58:00,0.127249820014,0,0.5,0.0,0.0,0.0,0
2015-07-30 16:08:00,0.151367890569,0,0.5,0.0,0.0,0.0,0
2015-07-30 16:34:00,0.16090712743,0,0.5,0.0,0.0,0.0,0
2015-07-30 16:55:00,0.113390928726,0,0.5,0.0,0.0,0.0,0
2015-07-30 17:26:00,0.154607631389,0,0.5,0.0,0.0,0.0,0
2015-07-30 18:07:00,0.0649748020158,0,0.5,0.0,0.0,0.0,0
2015-07-30 19:00:00,0.0667746580274,0,0.5,0.0,0.0,0.0,0
2015-07-30 20:48:00,0.00125989920806,0,0.5,0.0,0.0,0.0,0
2015-07-30 21:39:00,0.00845932325414,0,0.5,0.0,0.0,0.0,0
2015-07-30 21:41:00,0.0138588912887,0,0.5,0.0,0.0,0.0,0
2015-07-30 21:59:00,0.00917926565875,0,0.5,0.0,0.0,0.0,0
2015-07-30 22:01:00,0.0151187904968,0,0.5,0.0,0.0,0.0,0
2015-07-30 22:59:00,0.0246580273578,0,0.5,0.0,0.0,0.0,0
2015-07-30 23:48:00,0.0158387329014,0,0.5,0.0,0.0,0.0,0
2015-07-31 06:07:00,0.0133189344852,0,0.5,0.0,0.0,0.0,0
2015-07-31 08:59:00,0.106011519078,0,0.5,0.0,0.0,0.0,0
2015-07-31 09:09:00,0.201943844492,0,0.5,0.0,0.0,0.0,0
2015-07-31 09:19:00,0.233801295896,0,0.5,0.0,0.0,0.0,0
2015-07-31 09:28:00,0.267818574514,0,0.5,0.0,0.0,0.0,0
2015-07-31 09:39:00,0.288156947444,0,0.5,0.0,0.0,0.0,0
2015-07-31 09:49:00,0.3437724982,0,0.5,0.0,0.0,0.0,0
2015-07-31 09:59:00,0.365190784737,0,0.5,0.0,0.0,0.0,0
2015-07-31 10:09:00,0.352051835853,0,0.5,0.0,0.0,0.0,0
2015-07-31 10:19:00,0.525557955364,0,0.5,0.0,0.0,0.0,0
2015-07-31 10:29:00,0.542476601872,0,0.5,0.0,0.0,0.0,0
2015-07-31 10:39:00,0.56875449964,0,0.5,0.0,0.0,0.0,0
2015-07-31 10:49:00,0.512419006479,0,0.5,0.0,0.0,0.0,0
2015-07-31 10:59:00,0.546436285097,0,0.5,0.0,0.0,0.0,0
2015-07-31 11:09:00,0.768178545716,0,0.5,0.0,0.0,0.0,0
2015-07-31 11:29:00,0.701943844492,0,0.5,0.0,0.0,0.0,0
2015-07-31 11:39:00,0.769078473722,0,0.5,0.0,0.0,0.0,0
2015-07-31 11:59:00,0.852231821454,0,0.5,0.0,0.0,0.0,0
2015-07-31 12:09:00,0.92494600432,0,0.5,0.0,0.0,0.0,0
2015-07-31 12:29:00,0.939344852412,0,0.5,0.0,0.0,0.0,0
2015-07-31 12:33:00,1.0,0,0.5,0.0,0.0,0.0,0
2015-07-31 16:39:00,0.0458963282937,0,0.5,0.0,0.0,0.0,0
2015-07-31 16:49:00,0.0350971922246,0,0.5,0.0,0.0,0.0,0
2015-07-31 16:59:00,0.036717062635,0,0.5,0.0,0.0,0.0,0
2015-07-31 17:08:00,0.0514758819294,0,0.5,0.0,0.0,0.0,0
2015-07-31 17:18:00,0.0588552915767,0,0.5,0.0,0.0,0.0,0
2015-07-31 17:41:00,0.0374370050396,0,0.5,0.0,0.0,0.0,0
2015-07-31 17:48:00,0.0363570914327,0,0.5,0.0,0.0,0.0,0
2015-07-31 18:01:00,0.0430165586753,0,0.5,0.0,0.0,0.0,0
2015-07-31 23:50:00,0.0287976961843,0,0.5,0.0,0.0,0.0,0
2015-08-01 19:09:00,0.0251979841613,0,0.5,0.0,0.0,0.0,0
2015-08-01 19:59:00,0.0251979841613,0,0.5,0.0,0.0,0.0,0
2015-08-01 20:18:00,0.0305975521958,0,0.5,0.0,0.0,0.0,0
2015-08-01 22:33:00,0.0302375809935,0,0.5,0.0,0.0,0.0,0
2015-08-01 22:45:00,0.0322174226062,0,0.5,0.0,0.0,0.0,0
2015-08-01 23:43:00,0.0502159827214,0,0.5,0.0,0.0,0.0,0
2015-08-02 05:55:00,0.016558675306,0,0.5,0.0,0.0,0.0,0
2015-08-02 06:15:00,0.0179985601152,0,0.5,0.0,0.0,0.0,0
2015-08-02 06:35:00,0.0160187185025,0,0.5,0.0,0.0,0.0,0
2015-08-02 09:44:00,0.0242980561555,0,0.5,0.0,0.0,0.0,0
2015-08-02 10:05:00,0.0125989920806,0,0.5,0.0,0.0,0.0,0
2015-08-02 14:46:00,0.022498200144,0,0.5,0.0,0.0,0.0,0
2015-08-02 15:26:00,0.0237580993521,0,0.5,0.0,0.0,0.0,0
2015-08-02 16:26:00,0.0219582433405,0,0.5,0.0,0.0,0.0,0
2015-08-02 17:05:00,0.0345572354212,0,0.5,0.0,0.0,0.0,0
2015-08-02 18:46:00,0.022498200144,0,0.5,0.0,0.0,0.0,0
2015-08-02 19:16:00,0.0300575953924,0,0.5,0.0,0.0,0.0,0
2015-08-02 19:24:00,0.0295176385889,0,0.5,0.0,0.0,0.0,0
2015-08-02 19:56:00,0.0214182865371,0,0.5,0.0,0.0,0.0,0
2015-08-02 20:56:00,0.0295176385889,0,0.5,0.0,0.0,0.0,0
2015-08-02 22:46:00,0.0370770338373,0,0.5,0.0,0.0,0.0,0
2015-08-02 23:06:00,0.0442764578834,0,0.5,0.0,0.0,0.0,0
2015-08-02 23:16:00,0.047336213103,0,0.5,0.0,0.0,0.0,0
2015-08-02 23:26:00,0.0536357091433,0,0.5,0.0,0.0,0.0,0
2015-08-02 23:45:00,0.0745140388769,0,0.5,0.0,0.0,0.0,0
2015-08-02 23:56:00,0.0595752339813,0,0.5,0.0,0.0,0.0,0
2015-08-03 00:04:00,0.0736141108711,0,0.5,0.0,0.0,0.0,0
2015-08-03 07:36:00,0.0298776097912,0,0.5,0.0,0.0,0.0,0
2015-08-03 07:46:00,0.0325773938085,0,0.5,0.0,0.0,0.0,0
2015-08-03 07:55:00,0.0323974082073,0,0.5,0.0,0.0,0.0,0
2015-08-03 08:05:00,0.0392368610511,0,0.5,0.0,0.0,0.0,0
2015-08-03 08:16:00,0.0487760979122,0,0.5,0.0,0.0,0.0,0
2015-08-03 08:26:00,0.0543556515479,0,0.5,0.0,0.0,0.0,0
2015-08-03 08:36:00,0.0655147588193,0,0.5,0.0,0.0,0.0,0
2015-08-03 08:46:00,0.0705543556515,0,0.5,0.0,0.0,0.0,0
2015-08-03 08:53:00,0.0633549316055,0,0.5,0.0,0.0,0.0,0
2015-08-03 09:06:00,0.0530957523398,0,0.5,0.0,0.0,0.0,0
2015-08-03 10:46:00,0.0484161267099,0,0.5,0.0,0.0,0.0,0
2015-08-03 10:56:00,0.0529157667387,0,0.5,0.0,0.0,0.0,0
2015-08-03 11:15:00,0.0530957523398,0,0.5,0.0,0.0,0.0,0
2015-08-03 11:46:00,0.0386969042477,0,0.5,0.0,0.0,0.0,0
2015-08-03 11:56:00,0.0349172066235,0,0.5,0.0,0.0,0.0,0
2015-08-03 13:06:00,0.0259179265659,0,0.5,0.0,0.0,0.0,0
2015-08-03 14:06:00,0.0262778977682,0,0.5,0.0,0.0,0.0,0
2015-08-03 14:16:00,0.0215982721382,0,0.5,0.0,0.0,0.0,0
2015-08-03 15:56:00,0.0089992800576,0,0.5,0.0,0.0,0.0,0
2015-08-03 16:27:00,0.0662347012239,0,0.5,0.0,0.0,0.0,0
2015-08-03 16:37:00,0.0527357811375,0,0.5,0.0,0.0,0.0,0
2015-08-03 16:57:00,0.0561555075594,0,0.5,0.0,0.0,0.0,0
2015-08-03 17:16:00,0.0338372930166,0,0.5,0.0,0.0,0.0,0
2015-08-03 18:37:00,0.0226781857451,0,0.5,0.0,0.0,0.0,0
2015-08-04 03:27:00,0.160727141829,0,0.5,0.0,0.0,0.0,0
2015-08-04 03:37:00,0.161987041037,0,0.5,0.0,0.0,0.0,0
2015-08-04 03:47:00,0.160187185025,0,0.5,0.0,0.0,0.0,0
2015-08-04 03:51:00,0.172426205904,0,0.5,0.0,0.0,0.0,0
2015-08-04 07:55:00,0.0302375809935,0,0.5,0.0,0.0,0.0,0
2015-08-04 08:07:00,0.0334773218143,0,0.5,0.0,0.0,0.0,0
2015-08-04 08:15:00,0.0298776097912,0,0.5,0.0,0.0,0.0,0
2015-08-04 08:25:00,0.0341972642189,0,0.5,0.0,0.0,0.0,0
2015-08-04 08:34:00,0.0494960403168,0,0.5,0.0,0.0,0.0,0
2015-08-04 08:47:00,0.0539956803456,0,0.5,0.0,0.0,0.0,0
2015-08-04 08:57:00,0.0606551475882,0,0.5,0.0,0.0,0.0,0
2015-08-04 09:07:00,0.0608351331893,0,0.5,0.0,0.0,0.0,0
2015-08-04 09:27:00,0.0512958963283,0,0.5,0.0,0.0,0.0,0
2015-08-04 09:46:00,0.0327573794096,0,0.5,0.0,0.0,0.0,0
2015-08-04 10:07:00,0.0424766018719,0,0.5,0.0,0.0,0.0,0
2015-08-04 10:17:00,0.03905687545,0,0.5,0.0,0.0,0.0,0
2015-08-04 10:27:00,0.0354571634269,0,0.5,0.0,0.0,0.0,0
2015-08-04 11:07:00,0.137868970482,0,0.5,0.0,0.0,0.0,0
2015-08-04 11:17:00,0.202483801296,0,0.5,0.0,0.0,0.0,0
2015-08-04 11:33:00,0.235061195104,0,0.5,0.0,0.0,0.0,0
2015-08-04 11:43:00,0.0554355651548,0,0.5,0.0,0.0,0.0,0
2015-08-04 11:53:00,0.0408567314615,0,0.5,0.0,0.0,0.0,0
2015-08-04 12:13:00,0.0898128149748,0,0.5,0.0,0.0,0.0,0
2015-08-04 12:22:00,0.0948524118071,0,0.5,0.0,0.0,0.0,0
2015-08-04 12:33:00,0.109611231102,0,0.5,0.0,0.0,0.0,0
2015-08-04 15:23:00,0.0214182865371,0,0.5,0.0,0.0,0.0,0
2015-08-04 16:02:00,0.0223182145428,0,0.5,0.0,0.0,0.0,0
2015-08-04 16:13:00,0.0235781137509,0,0.5,0.0,0.0,0.0,0
2015-08-04 16:23:00,0.0268178545716,0,0.5,0.0,0.0,0.0,0
2015-08-04 16:33:00,0.0613750899928,0,0.5,0.0,0.0,0.0,0
2015-08-04 16:43:00,0.022498200144,0,0.5,0.0,0.0,0.0,0
2015-08-04 16:53:00,0.0304175665947,0,0.5,0.0,0.0,0.0,0
2015-08-04 17:03:00,0.0298776097912,0,0.5,0.0,0.0,0.0,0
2015-08-04 17:12:00,0.0311375089993,0,0.5,0.0,0.0,0.0,0
2015-08-04 17:23:00,0.0280777537797,0,0.5,0.0,0.0,0.0,0
2015-08-04 17:33:00,0.0593952483801,0,0.5,0.0,0.0,0.0,0
2015-08-04 17:43:00,0.0223182145428,0,0.5,0.0,0.0,0.0,0
2015-08-04 17:53:00,0.0781137508999,0,0.5,0.0,0.0,0.0,0
2015-08-04 18:03:00,0.0223182145428,0,0.5,0.0,0.0,0.0,0
2015-08-04 18:10:00,0.0440964722822,0,0.5,0.0,0.0,0.0,0
2015-08-04 18:23:00,0.0221382289417,0,0.5,0.0,0.0,0.0,0
2015-08-04 18:30:00,0.0210583153348,0,0.5,0.0,0.0,0.0,0
2015-08-04 18:36:00,0.0219582433405,0,0.5,0.0,0.0,0.0,0
2015-08-04 18:50:00,0.0289776817855,0,0.5,0.0,0.0,0.0,0
2015-08-04 19:00:00,0.0251979841613,0,0.5,0.0,0.0,0.0,0
2015-08-04 19:08:00,0.0262778977682,0,0.5,0.0,0.0,0.0,0
2015-08-04 19:20:00,0.15154787617,0,0.5,0.0,0.0,0.0,0
2015-08-04 19:29:00,0.139848812095,0,0.5,0.0,0.0,0.0,0
2015-08-04 19:39:00,0.14380849532,0,0.5,0.0,0.0,0.0,0
2015-08-04 19:47:00,0.127429805616,0,0.5,0.0,0.0,0.0,0
2015-08-04 20:00:00,0.105111591073,0,0.5,0.0,0.0,0.0,0
2015-08-04 20:10:00,0.17818574514,0,0.5,0.0,0.0,0.0,0
2015-08-04 20:20:00,0.13282937365,0,0.5,0.0,0.0,0.0,0
2015-08-04 20:30:00,0.173686105112,0,0.5,0.0,0.0,0.0,0
2015-08-04 20:39:00,0.125449964003,0,0.5,0.0,0.0,0.0,0
2015-08-04 20:48:00,0.383909287257,0,0.5,0.0,0.0,0.0,0
2015-08-04 20:59:00,0.0887329013679,0,0.5,0.0,0.0,0.0,0
2015-08-04 21:20:00,0.0892728581713,0,0.5,0.0,0.0,0.0,0
2015-08-04 21:30:00,0.138048956084,0,0.5,0.0,0.0,0.0,0
2015-08-04 21:40:00,0.174046076314,0,0.5,0.0,0.0,0.0,0
2015-08-04 21:50:00,0.18898488121,0,0.5,0.0,0.0,0.0,0
2015-08-04 21:59:00,0.178005759539,0,0.5,0.0,0.0,0.0,0
2015-08-04 22:10:00,0.188624910007,0,0.5,0.0,0.0,0.0,0
2015-08-04 22:13:00,0.433765298776,0,0.5,0.0,0.0,0.0,0
2015-08-04 22:30:00,0.281677465803,0,0.5,0.0,0.0,0.0,0
2015-08-04 22:40:00,0.24838012959,0,0.5,0.0,0.0,0.0,0
2015-08-04 22:50:00,0.213462922966,0,0.5,0.0,0.0,0.0,0
2015-08-04 23:00:00,0.252519798416,0,0.5,0.0,0.0,0.0,0
2015-08-04 23:10:00,0.227861771058,0,0.5,0.0,0.0,0.0,0
2015-08-04 23:20:00,0.19060475162,0,0.5,0.0,0.0,0.0,0
2015-08-04 23:48:00,0.0649748020158,0,0.5,0.0,0.0,0.0,0
2015-08-05 00:18:00,0.179985601152,0,0.5,0.0,0.0,0.0,0
2015-08-05 00:30:00,0.435025197984,0,0.5,0.0,0.0,0.0,0
2015-08-05 00:40:00,0.339452843772,0,0.5,0.0,0.0,0.0,0
2015-08-05 00:50:00,0.130849532037,0,0.5,0.0,0.0,0.0,0
2015-08-05 07:30:00,0.0289776817855,0,0.5,0.0,0.0,0.0,0
2015-08-05 07:50:00,0.0239380849532,0,0.5,0.0,0.0,0.0,0
2015-08-05 07:59:00,0.0250179985601,0,0.5,0.0,0.0,0.0,0
2015-08-05 08:10:00,0.0268178545716,0,0.5,0.0,0.0,0.0,0
2015-08-05 08:19:00,0.0325773938085,0,0.5,0.0,0.0,0.0,0
2015-08-05 08:30:00,0.0484161267099,0,0.5,0.0,0.0,0.0,0
2015-08-05 08:40:00,0.0646148308135,0,0.5,0.0,0.0,0.0,0
2015-08-05 09:00:00,0.0698344132469,0,0.5,0.0,0.0,0.0,0
2015-08-05 09:10:00,0.0451763858891,0,0.5,0.0,0.0,0.0,0
2015-08-05 09:48:00,0.0439164866811,0,0.5,0.0,0.0,0.0,0
2015-08-05 10:08:00,0.0332973362131,0,0.5,0.0,0.0,0.0,0
2015-08-05 10:20:00,0.0502159827214,0,0.5,0.0,0.0,0.0,0
2015-08-05 10:30:00,0.0689344852412,0,0.5,0.0,0.0,0.0,0
2015-08-05 12:26:00,0.0237580993521,0,0.5,0.0,0.0,0.0,0
2015-08-05 12:56:00,0.0255579553636,0,0.5,0.0,0.0,0.0,0
2015-08-05 13:46:00,0.0210583153348,0,0.5,0.0,0.0,0.0,0
2015-08-05 13:55:00,0.0235781137509,0,0.5,0.0,0.0,0.0,0
2015-08-05 14:56:00,0.0237580993521,0,0.5,0.0,0.0,0.0,0
2015-08-05 16:56:00,0.0255579553636,0,0.5,0.0,0.0,0.0,0
2015-08-05 17:26:00,0.0233981281497,0,0.5,0.0,0.0,0.0,0
2015-08-05 17:34:00,0.0286177105832,0,0.5,0.0,0.0,0.0,0
2015-08-05 18:14:00,0.0228581713463,0,0.5,0.0,0.0,0.0,0
2015-08-05 21:27:00,0.0208783297336,0,0.5,0.0,0.0,0.0,0
2015-08-05 22:39:00,0.0203383729302,0,0.5,0.0,0.0,0.0,0
2015-08-05 23:27:00,0.0230381569474,0,0.5,0.0,0.0,0.0,0
2015-08-06 04:38:00,0.0152987760979,0,0.5,0.0,0.0,0.0,0
2015-08-06 04:48:00,0.0170986321094,0,0.5,0.0,0.0,0.0,0
2015-08-06 05:08:00,0.0160187185025,0,0.5,0.0,0.0,0.0,0
2015-08-06 06:08:00,0.0147588192945,0,0.5,0.0,0.0,0.0,0
2015-08-06 06:38:00,0.0223182145428,0,0.5,0.0,0.0,0.0,0
2015-08-06 06:58:00,0.0194384449244,0,0.5,0.0,0.0,0.0,0
2015-08-06 07:48:00,0.020158387329,0,0.5,0.0,0.0,0.0,0
2015-08-06 07:54:00,0.0205183585313,0,0.5,0.0,0.0,0.0,0
2015-08-06 08:07:00,0.0322174226062,0,0.5,0.0,0.0,0.0,0
2015-08-06 08:17:00,0.040316774658,0,0.5,0.0,0.0,0.0,0
2015-08-06 08:26:00,0.0392368610511,0,0.5,0.0,0.0,0.0,0
2015-08-06 08:38:00,0.0502159827214,0,0.5,0.0,0.0,0.0,0
2015-08-06 08:48:00,0.0601151907847,0,0.5,0.0,0.0,0.0,0
2015-08-06 08:58:00,0.0514758819294,0,0.5,0.0,0.0,0.0,0
2015-08-06 09:08:00,0.0584953203744,0,0.5,0.0,0.0,0.0,0
2015-08-06 09:18:00,0.0838732901368,0,0.5,0.0,0.0,0.0,0
2015-08-06 09:28:00,0.0799136069114,0,0.5,0.0,0.0,0.0,0
2015-08-06 09:38:00,0.0640748740101,0,0.5,0.0,0.0,0.0,0
2015-08-06 09:48:00,0.0541756659467,0,0.5,0.0,0.0,0.0,0
2015-08-06 09:58:00,0.0352771778258,0,0.5,0.0,0.0,0.0,0
2015-08-06 10:07:00,0.0329373650108,0,0.5,0.0,0.0,0.0,0
2015-08-06 10:18:00,0.0334773218143,0,0.5,0.0,0.0,0.0,0
2015-08-06 10:28:00,0.0458963282937,0,0.5,0.0,0.0,0.0,0
2015-08-06 10:36:00,0.053275737941,0,0.5,0.0,0.0,0.0,0
2015-08-06 10:58:00,0.0332973362131,0,0.5,0.0,0.0,0.0,0
2015-08-06 11:48:00,0.0138588912887,0,0.5,0.0,0.0,0.0,0
2015-08-06 11:57:00,0.0140388768898,0,0.5,0.0,0.0,0.0,0
2015-08-06 12:07:00,0.0158387329014,0,0.5,0.0,0.0,0.0,0
2015-08-06 12:18:00,0.0176385889129,0,0.5,0.0,0.0,0.0,0
2015-08-06 12:28:00,0.0185385169186,0,0.5,0.0,0.0,0.0,0
2015-08-06 12:38:00,0.0210583153348,0,0.5,0.0,0.0,0.0,0
2015-08-06 12:48:00,0.028437724982,0,0.5,0.0,0.0,0.0,0
2015-08-06 13:09:00,0.0253779697624,0,0.5,0.0,0.0,0.0,0
2015-08-06 13:28:00,0.026097912167,0,0.5,0.0,0.0,0.0,0
2015-08-06 13:58:00,0.0318574514039,0,0.5,0.0,0.0,0.0,0
2015-08-06 14:05:00,0.030777537797,0,0.5,0.0,0.0,0.0,0
2015-08-06 15:47:00,0.0286177105832,0,0.5,0.0,0.0,0.0,0
2015-08-06 16:17:00,0.028437724982,0,0.5,0.0,0.0,0.0,0
2015-08-06 16:28:00,0.0282577393808,0,0.5,0.0,0.0,0.0,0
2015-08-06 17:08:00,0.0275377969762,0,0.5,0.0,0.0,0.0,0
2015-08-06 17:41:00,0.0241180705544,0,0.5,0.0,0.0,0.0,0
2015-08-06 17:58:00,0.0181785457163,0,0.5,0.0,0.0,0.0,0
2015-08-06 18:08:00,0.00503959683225,0,0.5,0.0,0.0,0.0,0
2015-08-06 18:18:00,0.0187185025198,0,0.5,0.0,0.0,0.0,0
2015-08-06 19:08:00,0.0215982721382,0,0.5,0.0,0.0,0.0,0
2015-08-06 21:28:00,0.0404967602592,0,0.5,0.0,0.0,0.0,0
2015-08-06 21:37:00,0.032037437005,0,0.5,0.0,0.0,0.0,0
2015-08-07 06:09:00,0.978941684665,0,0.5,0.0,0.0,0.0,0
2015-08-07 07:40:00,0.0262778977682,0,0.5,0.0,0.0,0.0,0
2015-08-07 08:19:00,0.0309575233981,0,0.5,0.0,0.0,0.0,0
2015-08-07 08:30:00,0.0302375809935,0,0.5,0.0,0.0,0.0,0
2015-08-07 08:40:00,0.0484161267099,0,0.5,0.0,0.0,0.0,0
2015-08-07 08:50:00,0.0340172786177,0,0.5,0.0,0.0,0.0,0
2015-08-07 08:59:00,0.0314974802016,0,0.5,0.0,0.0,0.0,0
2015-08-07 09:30:00,0.0419366450684,0,0.5,0.0,0.0,0.0,0
2015-08-07 09:40:00,0.0466162706983,0,0.5,0.0,0.0,0.0,0
2015-08-07 09:48:00,0.0446364290857,0,0.5,0.0,0.0,0.0,0
2015-08-07 10:10:00,0.0860331173506,0,0.5,0.0,0.0,0.0,0
2015-08-07 10:30:00,0.10313174946,0,0.5,0.0,0.0,0.0,0
2015-08-07 10:40:00,0.128509719222,0,0.5,0.0,0.0,0.0,0
2015-08-07 10:50:00,0.0579553635709,0,0.5,0.0,0.0,0.0,0
2015-08-07 11:00:00,0.0752339812815,0,0.5,0.0,0.0,0.0,0
2015-08-07 11:10:00,0.0950323974082,0,0.5,0.0,0.0,0.0,0
2015-08-07 11:17:00,0.0759539236861,0,0.5,0.0,0.0,0.0,0
2015-08-07 11:30:00,0.0563354931605,0,0.5,0.0,0.0,0.0,0
2015-08-07 11:40:00,0.061555075594,0,0.5,0.0,0.0,0.0,0
2015-08-07 11:59:00,0.0662347012239,0,0.5,0.0,0.0,0.0,0
2015-08-07 12:10:00,0.0671346292297,0,0.5,0.0,0.0,0.0,0
2015-08-07 12:48:00,0.050935925126,0,0.5,0.0,0.0,0.0,0
2015-08-07 12:59:00,0.0606551475882,0,0.5,0.0,0.0,0.0,0
2015-08-07 13:10:00,0.0489560835133,0,0.5,0.0,0.0,0.0,0
2015-08-07 13:20:00,0.0451763858891,0,0.5,0.0,0.0,0.0,0
2015-08-07 13:30:00,0.0385169186465,0,0.5,0.0,0.0,0.0,0
2015-08-07 13:39:00,0.046256299496,0,0.5,0.0,0.0,0.0,0
2015-08-07 13:50:00,0.0521958243341,0,0.5,0.0,0.0,0.0,0
2015-08-07 14:00:00,0.0354571634269,0,0.5,0.0,0.0,0.0,0
2015-08-07 14:10:00,0.0262778977682,0,0.5,0.0,0.0,0.0,0
2015-08-07 14:18:00,0.0205183585313,0,0.5,0.0,0.0,0.0,0
2015-08-07 14:30:00,0.0237580993521,0,0.5,0.0,0.0,0.0,0
2015-08-07 14:40:00,0.0262778977682,0,0.5,0.0,0.0,0.0,0
2015-08-07 14:50:00,0.0280777537797,0,0.5,0.0,0.0,0.0,0
2015-08-07 15:00:00,0.0286177105832,0,0.5,0.0,0.0,0.0,0
2015-08-07 15:28:00,0.0521958243341,0,0.5,0.0,0.0,0.0,0
2015-08-07 15:38:00,0.0557955363571,0,0.5,0.0,0.0,0.0,0
2015-08-07 15:58:00,0.0622750179986,0,0.5,0.0,0.0,0.0,0
2015-08-07 16:06:00,0.0503959683225,0,0.5,0.0,0.0,0.0,0
2015-08-07 16:17:00,0.0516558675306,0,0.5,0.0,0.0,0.0,0
2015-08-07 16:24:00,0.0511159107271,0,0.5,0.0,0.0,0.0,0
2015-08-07 16:46:00,0.0745140388769,0,0.5,0.0,0.0,0.0,0
2015-08-07 16:57:00,0.113210943125,0,0.5,0.0,0.0,0.0,0
2015-08-07 17:06:00,0.119150467963,0,0.5,0.0,0.0,0.0,0
2015-08-07 17:16:00,0.143988480922,0,0.5,0.0,0.0,0.0,0
2015-08-07 17:27:00,0.158207343413,0,0.5,0.0,0.0,0.0,0
2015-08-07 17:38:00,0.111771058315,0,0.5,0.0,0.0,0.0,0
2015-08-07 17:57:00,0.0570554355652,0,0.5,0.0,0.0,0.0,0
2015-08-07 18:07:00,0.0629949604032,0,0.5,0.0,0.0,0.0,0
2015-08-07 18:17:00,0.0518358531317,0,0.5,0.0,0.0,0.0,0
2015-08-07 18:27:00,0.042656587473,0,0.5,0.0,0.0,0.0,0
2015-08-07 18:37:00,0.03905687545,0,0.5,0.0,0.0,0.0,0
2015-08-07 18:47:00,0.032037437005,0,0.5,0.0,0.0,0.0,0
2015-08-07 20:17:00,0.0246580273578,0,0.5,0.0,0.0,0.0,0
2015-08-07 20:46:00,0.0223182145428,0,0.5,0.0,0.0,0.0,0
2015-08-07 20:55:00,0.0208783297336,0,0.5,0.0,0.0,0.0,0
2015-08-07 22:47:00,0.0120590352772,0,0.5,0.0,0.0,0.0,0
2015-08-08 03:56:00,0.0185385169186,0,0.5,0.0,0.0,0.0,0
2015-08-08 04:47:00,0.00665946724262,0,0.5,0.0,0.0,0.0,0
2015-08-08 04:57:00,0.00701943844492,0,0.5,0.0,0.0,0.0,0
2015-08-08 05:06:00,0.117530597552,0,0.5,0.0,0.0,0.0,0
2015-08-08 05:17:00,0.12185025198,0,0.5,0.0,0.0,0.0,0
2015-08-08 05:26:00,0.0953923686105,0,0.5,0.0,0.0,0.0,0
2015-08-08 05:37:00,0.206623470122,0,0.5,0.0,0.0,0.0,0
2015-08-08 05:47:00,0.299676025918,0,0.5,0.0,0.0,0.0,0
2015-08-08 08:17:00,0.0268178545716,0,0.5,0.0,0.0,0.0,0
2015-08-08 08:37:00,0.0493160547156,0,0.5,0.0,0.0,0.0,0
2015-08-08 08:47:00,0.0507559395248,0,0.5,0.0,0.0,0.0,0
2015-08-08 08:57:00,0.0572354211663,0,0.5,0.0,0.0,0.0,0
2015-08-08 09:07:00,0.0626349892009,0,0.5,0.0,0.0,0.0,0
2015-08-08 09:16:00,0.071094312455,0,0.5,0.0,0.0,0.0,0
2015-08-08 09:26:00,0.0725341972642,0,0.5,0.0,0.0,0.0,0
2015-08-08 09:37:00,0.0723542116631,0,0.5,0.0,0.0,0.0,0
2015-08-08 09:47:00,0.0575953923686,0,0.5,0.0,0.0,0.0,0
2015-08-08 09:57:00,0.0484161267099,0,0.5,0.0,0.0,0.0,0
2015-08-08 10:07:00,0.0656947444204,0,0.5,0.0,0.0,0.0,0
2015-08-08 10:17:00,0.0561555075594,0,0.5,0.0,0.0,0.0,0
2015-08-08 10:27:00,0.0493160547156,0,0.5,0.0,0.0,0.0,0
2015-08-08 10:37:00,0.0457163426926,0,0.5,0.0,0.0,0.0,0
2015-08-08 10:46:00,0.0433765298776,0,0.5,0.0,0.0,0.0,0
2015-08-08 10:57:00,0.0406767458603,0,0.5,0.0,0.0,0.0,0
2015-08-08 11:07:00,0.0503959683225,0,0.5,0.0,0.0,0.0,0
2015-08-08 11:17:00,0.0383369330454,0,0.5,0.0,0.0,0.0,0
2015-08-08 11:27:00,0.0415766738661,0,0.5,0.0,0.0,0.0,0
2015-08-08 11:37:00,0.0435565154788,0,0.5,0.0,0.0,0.0,0
2015-08-08 11:47:00,0.0199784017279,0,0.5,0.0,0.0,0.0,0
2015-08-08 12:07:00,0.0154787616991,0,0.5,0.0,0.0,0.0,0
2015-08-08 12:17:00,0.016558675306,0,0.5,0.0,0.0,0.0,0
2015-08-08 12:26:00,0.0169186465083,0,0.5,0.0,0.0,0.0,0
2015-08-08 12:47:00,0.0140388768898,0,0.5,0.0,0.0,0.0,0
2015-08-08 12:57:00,0.0143988480922,0,0.5,0.0,0.0,0.0,0
2015-08-08 13:07:00,0.0129589632829,0,0.5,0.0,0.0,0.0,0
2015-08-08 13:17:00,0.0125989920806,0,0.5,0.0,0.0,0.0,0
2015-08-08 13:27:00,0.0111591072714,0,0.5,0.0,0.0,0.0,0
2015-08-08 13:37:00,0.0183585313175,0,0.5,0.0,0.0,0.0,0
2015-08-08 14:47:00,0.0179985601152,0,0.5,0.0,0.0,0.0,0
2015-08-08 14:56:00,0.0183585313175,0,0.5,0.0,0.0,0.0,0
2015-08-08 16:30:00,0.0219582433405,0,0.5,0.0,0.0,0.0,0
2015-08-08 17:02:00,0.018898488121,0,0.5,0.0,0.0,0.0,0
2015-08-08 17:11:00,0.0217782577394,0,0.5,0.0,0.0,0.0,0
2015-08-08 17:22:00,0.0154787616991,0,0.5,0.0,0.0,0.0,0
2015-08-08 17:31:00,0.0196184305256,0,0.923232234253,0.0,0.0,0.0,0
2015-08-08 18:22:00,0.0199784017279,0,0.919772283172,0.0,0.0,0.0,0
2015-08-08 19:12:00,0.0235781137509,0,0.913685281832,0.0,0.0,0.0,0
2015-08-08 20:02:00,0.0160187185025,0,0.914857763738,0.0,0.0,0.0,0
2015-08-08 20:12:00,0.016558675306,0,0.915573334891,0.0,0.0,0.0,0
2015-08-08 20:22:00,0.0269978401728,0,0.911211613621,0.0,0.0,0.0,0
2015-08-08 22:01:00,0.0217782577394,0,0.911304162462,0.0,0.0,0.0,0
2015-08-08 22:21:00,0.0149388048956,0,0.913322099953,0.0,0.0,0.0,0
2015-08-08 22:32:00,0.0158387329014,0,0.916284384263,0.0,0.0,0.0,0
2015-08-08 22:42:00,0.0163786897048,0,0.915840507575,0.0,0.0,0.0,0
2015-08-08 22:51:00,0.0194384449244,0,0.915929423954,0.0,0.0,0.0,0
2015-08-09 00:22:00,0.0192584593233,0,0.916284384263,0.0,0.0,0.0,0
2015-08-09 04:52:00,0.0167386609071,0,0.887020213474,0.0,0.0,0.0,0
2015-08-09 05:12:00,0.124730021598,0,0.809267518969,0.0,0.0,0.0,0
2015-08-09 05:22:00,0.239200863931,0,0.574491415514,0.0,0.0,0.0,0
2015-08-09 05:32:00,0.269258459323,0,0.71230398607,0.0,0.0,0.0,0
2015-08-09 05:42:00,0.285097192225,0,0.915138115834,0.0,0.0,0.0,0
2015-08-09 05:50:00,0.286537077034,0,0.98650343416,0.0,0.0,0.0,0
2015-08-09 09:32:00,0.0334773218143,0,0.988276574226,0.0,0.0,0.0,0
2015-08-09 09:42:00,0.0383369330454,0,0.990198664518,0.0,0.0,0.0,0
2015-08-09 09:52:00,0.0336573074154,0,0.99129106812,0.0,0.0,0.0,0
2015-08-09 10:02:00,0.0350971922246,0,0.992380868038,0.0,0.0,0.0,0
2015-08-09 10:11:00,0.0277177825774,0,0.993064038547,0.0,0.0,0.0,0
2015-08-09 10:42:00,0.0230381569474,0,0.984087519367,0.0,0.0,0.0,0
2015-08-09 10:52:00,0.0280777537797,0,0.932514907284,0.0,0.0,0.0,0
2015-08-09 10:59:00,0.0289776817855,0,0.774260034375,0.0,0.0,0.0,0
2015-08-09 11:13:00,0.046256299496,0,0.506206938541,0.0,0.0,0.0,0
2015-08-09 11:22:00,0.0507559395248,0,0.761886864892,0.0,0.0,0.0,0
2015-08-09 11:32:00,0.0455363570914,0,0.750211185563,0.0,0.0,0.0,0
2015-08-09 11:42:00,0.026097912167,0,0.762058833953,0.0,0.0,0.0,0
2015-08-09 12:32:00,0.0259179265659,0,0.769388728215,0.0,0.0,0.0,0
2015-08-09 12:52:00,0.0232181425486,0,0.780389784763,0.0,0.0,0.0,0
2015-08-09 13:29:00,0.0221382289417,0,0.78545110582,0.0,0.0,0.0,0
2015-08-09 14:22:00,0.0203383729302,0,0.787875584443,0.0,0.0,0.0,0
2015-08-09 14:32:00,0.0219582433405,0,0.793311391822,0.0,0.0,0.0,0
2015-08-09 14:42:00,0.018898488121,0,0.802082488396,0.0,0.0,0.0,0
2015-08-09 14:52:00,0.0203383729302,0,0.823581746638,0.0,0.0,0.0,0
2015-08-09 15:02:00,0.0158387329014,0,0.850109678001,0.0,0.0,0.0,0
2015-08-09 15:12:00,0.0169186465083,0,0.86976002321,0.0,0.0,0.0,0
2015-08-09 15:32:00,0.0212383009359,0,0.87291118585,0.0,0.0,0.0,0
2015-08-09 16:12:00,0.0266378689705,0,0.872447724724,0.0,0.0,0.0,0
2015-08-09 16:32:00,0.0219582433405,0,0.873258011775,0.0,0.0,0.0,0
2015-08-09 16:42:00,0.0190784737221,0,0.875210908184,0.0,0.0,0.0,0
2015-08-09 16:45:00,0.0197984161267,0,0.875553342382,0.0,0.0,0.0,0
2015-08-09 16:57:00,0.016558675306,0,0.878941570057,0.0,0.0,0.0,0
2015-08-09 17:05:00,0.0181785457163,0,0.879388382798,0.0,0.0,0.0,0
2015-08-09 17:17:00,0.0179985601152,0,0.880832500785,0.0,0.0,0.0,0
2015-08-09 17:27:00,0.0160187185025,0,0.880721850029,0.0,0.0,0.0,0
2015-08-09 17:36:00,0.0160187185025,0,0.881274379154,0.0,0.0,0.0,0
2015-08-09 17:47:00,0.0167386609071,0,0.884009899606,0.0,0.0,0.0,0
2015-08-09 17:57:00,0.0145788336933,1,0.891119602998,0.689432259024,0.689432259024,0.689432259024,0
2015-08-09 18:06:00,0.0160187185025,1,0.894503888761,0.0,0.0,0.0,0
2015-08-09 18:17:00,0.0158387329014,1,0.89631747659,0.0,0.0,0.0,0
2015-08-09 18:26:00,0.0172786177106,1,0.897712326281,0.0,0.0,0.0,0
2015-08-09 18:37:00,0.0190784737221,1,0.89631747659,0.0,0.0,0.0,0
2015-08-09 18:46:00,0.0192584593233,1,0.895715477878,0.0,0.0,0.0,0
2015-08-09 19:17:00,0.0282577393808,1,0.889869805381,0.0,0.0,0.0,0
2015-08-09 19:27:00,0.0259179265659,1,0.884009899606,0.0,0.0,0.0,0
2015-08-09 19:46:00,0.0196184305256,1,0.88182509765,0.0,0.0,0.0,0
2015-08-09 19:56:00,0.0199784017279,1,0.879834033153,0.0,0.0,0.0,0
2015-08-09 20:06:00,0.0205183585313,1,0.876122604898,0.0,0.0,0.0,0
2015-08-09 20:17:00,0.0199784017279,1,0.873604178095,0.0,0.0,0.0,0
2015-08-09 20:25:00,0.0203383729302,1,0.870699285608,0.0,0.0,0.0,0
2015-08-09 20:37:00,0.0190784737221,1,0.869524471831,0.0,0.0,0.0,0
2015-08-09 20:47:00,0.0183585313175,1,0.8699952802,0.0,0.0,0.0,0
2015-08-09 21:07:00,0.0223182145428,1,0.867986206851,0.0,0.0,0.0,0
2015-08-09 21:17:00,0.0185385169186,1,0.874294533094,0.0,0.0,0.0,0
2015-08-09 21:26:00,0.0176385889129,1,0.879499904328,0.0,0.0,0.0,0
2015-08-09 21:36:00,0.0170986321094,1,0.881053584874,0.0,0.0,0.0,0
2015-08-09 21:57:00,0.0185385169186,1,0.881935024223,0.0,0.0,0.0,0
2015-08-09 22:07:00,0.0196184305256,1,0.882483572206,0.0,0.0,0.0,0
2015-08-09 22:17:00,0.0206983441325,1,0.882044878452,0.0,0.0,0.0,0
2015-08-09 22:27:00,0.0185385169186,1,0.883139444873,0.0,0.0,0.0,0
2015-08-09 22:36:00,0.0122390208783,1,0.88723308213,0.0,0.0,0.0,0
2015-08-09 22:47:00,0.0124190064795,1,0.890704141811,0.0,0.0,0.0,0
2015-08-09 23:07:00,0.011879049676,1,0.896617528693,0.0,0.0,0.0,0
2015-08-09 23:17:00,0.014218862491,1,0.898995277045,0.0,0.0,0.0,0
2015-08-09 23:23:00,0.0143988480922,1,0.900752248345,0.0,0.0,0.0,0
2015-08-09 23:37:00,0.0152987760979,1,0.901718634568,0.0,0.0,0.0,0
2015-08-09 23:57:00,0.0111591072714,1,0.905608790956,0.0,0.0,0.0,0
2015-08-10 00:07:00,0.0104391648668,1,0.910287795525,0.0,0.0,0.0,0
2015-08-10 00:17:00,0.0111591072714,1,0.914965256486,0.0,0.0,0.0,0
2015-08-10 00:27:00,0.0124190064795,1,0.917868147488,0.0,0.0,0.0,0
2015-08-10 00:36:00,0.0151187904968,1,0.916511517546,0.0,0.0,0.0,0
2015-08-10 01:06:00,0.0136789056875,1,0.915912723789,0.0,0.0,0.0,0
2015-08-10 05:57:00,0.0154787616991,1,0.914184122524,0.0,0.0,0.0,0
2015-08-10 07:16:00,0.0287976961843,1,0.906910784036,0.0,0.0,0.0,0
2015-08-10 07:37:00,0.0410367170626,1,0.8924620077,0.0,0.0,0.0,0
2015-08-10 07:57:00,0.0408567314615,1,0.877142679008,0.0,0.0,0.0,0
2015-08-10 08:17:00,0.033117350612,1,0.862809215428,0.0,0.0,0.0,0
2015-08-10 08:27:00,0.0305975521958,1,0.848680672825,0.0,0.0,0.0,0
2015-08-10 08:37:00,0.0460763138949,1,0.821993518827,0.0,0.0,0.0,0
2015-08-10 08:47:00,0.0619150467963,1,0.779402313718,0.0,0.0,0.0,0
2015-08-10 08:57:00,0.0565154787617,1,0.739683251199,0.0,0.0,0.0,0
2015-08-10 09:07:00,0.0340172786177,1,0.718900062868,0.0,0.0,0.0,0
2015-08-10 09:17:00,0.0232181425486,1,0.710786104943,0.0,0.0,0.0,0
2015-08-10 09:27:00,0.0228581713463,1,0.717022941296,0.0,0.0,0.0,0
2015-08-10 09:37:00,0.0257379409647,1,0.732783496153,0.0,0.0,0.0,0
2015-08-10 09:46:00,0.0277177825774,1,0.745956093488,0.0,0.0,0.0,0
2015-08-10 09:57:00,0.0325773938085,1,0.746490051682,0.0,0.0,0.0,0
2015-08-10 10:06:00,0.0363570914327,1,0.740764234921,0.0,0.0,0.0,0
2015-08-10 10:17:00,0.0332973362131,1,0.753377496948,0.0,0.0,0.0,0
2015-08-10 10:27:00,0.0397768178546,1,0.774426965745,0.0,0.0,0.0,0
2015-08-10 10:37:00,0.0417566594672,1,0.787875584443,0.0,0.0,0.0,0
2015-08-10 10:57:00,0.0372570194384,1,0.78496428418,0.0,0.0,0.0,0
2015-08-10 11:07:00,0.0467962562995,1,0.763089216985,0.0,0.0,0.0,0
2015-08-10 11:17:00,0.0608351331893,1,0.725422207612,0.0,0.0,0.0,0
2015-08-10 11:25:00,0.0622750179986,1,0.686595238851,0.0,0.0,0.0,0
2015-08-10 11:36:00,0.0543556515479,1,0.656886771285,0.0,0.0,0.0,0
2015-08-10 11:47:00,0.053275737941,1,0.633101033242,0.0,0.0,0.0,0
2015-08-10 11:56:00,0.0559755219582,1,0.610072651606,0.0,0.0,0.0,0
2015-08-10 12:17:00,0.0671346292297,1,0.569475917298,0.0,0.0,0.0,0
2015-08-10 12:27:00,0.0730741540677,1,0.593738382297,0.0,0.0,0.0,0
2015-08-10 12:37:00,0.0611951043916,1,0.615965837164,0.0,0.0,0.0,0
2015-08-10 12:47:00,0.0669546436285,1,0.649177840891,0.0,0.0,0.0,0
2015-08-10 12:57:00,0.0561555075594,1,0.659426287523,0.0,0.0,0.0,0
2015-08-10 13:06:00,0.0581353491721,1,0.656481658963,0.0,0.0,0.0,0
2015-08-10 13:36:00,0.0664146868251,1,0.660992805801,0.0,0.0,0.0,0
2015-08-10 13:46:00,0.0714542836573,1,0.679376343404,0.0,0.0,0.0,0
2015-08-10 13:57:00,0.0980921526278,1,0.725432288739,0.0,0.0,0.0,0
2015-08-10 14:07:00,0.119150467963,1,0.784265377251,0.0,0.0,0.0,0
2015-08-10 14:17:00,0.0806335493161,1,0.795816422227,0.0,0.0,0.0,0
2015-08-10 14:27:00,0.0606551475882,1,0.785203173835,0.0,0.0,0.0,0