timestamp,value,is_anomaly,anomaly_score
2015-09-08 11:39:00,0.808988764045,0,0.5
2015-09-08 11:44:00,0.685393258427,0,0.5
2015-09-08 11:59:00,0.730337078652,0,0.5
2015-09-08 12:19:00,0.76404494382,0,0.5
2015-09-08 12:24:00,0.719101123596,0,0.5
2015-09-08 12:27:00,0.842696629213,0,0.5
2015-09-08 12:32:00,0.719101123596,0,0.5
2015-09-08 12:46:00,0.685393258427,0,0.5
2015-09-08 12:51:00,0.674157303371,0,0.5
2015-09-08 13:01:00,0.719101123596,0,0.5
2015-09-08 13:21:00,0.752808988764,0,0.5
2015-09-08 13:26:00,0.730337078652,0,0.5
2015-09-08 13:31:00,0.741573033708,0,0.5
2015-09-08 13:36:00,0.719101123596,0,0.5
2015-09-08 13:41:00,0.741573033708,0,0.5
2015-09-08 13:46:00,0.741573033708,0,0.5
2015-09-08 13:56:00,0.76404494382,0,0.5
2015-09-08 14:11:00,0.752808988764,0,0.5
2015-09-08 14:16:00,0.752808988764,0,0.5
2015-09-08 14:21:00,0.741573033708,0,0.5
2015-09-08 14:46:00,0.730337078652,0,0.5
2015-09-08 14:51:00,0.752808988764,0,0.5
2015-09-08 15:16:00,0.76404494382,0,0.5
2015-09-08 15:21:00,0.719101123596,0,0.5
2015-09-08 15:26:00,0.775280898876,0,0.5
2015-09-08 15:29:00,0.730337078652,0,0.5
2015-09-08 15:41:00,0.719101123596,0,0.5
2015-09-08 16:15:00,0.707865168539,0,0.5
2015-09-08 16:31:00,0.730337078652,0,0.5
2015-09-08 16:36:00,0.76404494382,0,0.5
2015-09-08 16:41:00,0.707865168539,0,0.5
2015-09-08 16:56:00,0.76404494382,0,0.5
2015-09-08 17:11:00,0.719101123596,0,0.5
2015-09-08 17:16:00,0.752808988764,0,0.5
2015-09-08 17:21:00,0.741573033708,0,0.5
2015-09-08 17:26:00,0.76404494382,0,0.5
2015-09-08 17:31:00,0.730337078652,0,0.5
2015-09-08 17:36:00,0.76404494382,0,0.5
2015-09-08 17:41:00,0.730337078652,0,0.5
2015-09-08 17:46:00,0.719101123596,0,0.5
2015-09-08 17:51:00,0.730337078652,0,0.5
2015-09-08 17:56:00,0.719101123596,0,0.5
2015-09-08 17:57:00,0.707865168539,0,0.5
2015-09-08 18:36:00,0.775280898876,0,0.5
2015-09-08 18:46:00,0.76404494382,0,0.5
2015-09-08 18:51:00,0.730337078652,0,0.5
2015-09-08 18:56:00,0.752808988764,0,0.5
2015-09-08 19:06:00,0.786516853933,0,0.5
2015-09-08 20:11:00,0.696629213483,0,0.5
2015-09-08 20:31:00,0.741573033708,0,0.5
2015-09-08 20:41:00,0.685393258427,0,0.5
2015-09-08 20:51:00,0.707865168539,0,0.5
2015-09-08 21:01:00,0.651685393258,0,0.5
2015-09-08 21:06:00,0.719101123596,0,0.5
2015-09-08 21:31:00,0.640449438202,0,0.5
2015-09-08 21:41:00,0.707865168539,0,0.5
2015-09-08 22:31:00,0.696629213483,0,0.5
2015-09-08 22:41:00,0.730337078652,0,0.5
2015-09-08 23:16:00,0.730337078652,0,0.5
2015-09-08 23:31:00,0.662921348315,0,0.5
2015-09-09 00:06:00,0.629213483146,0,0.5
2015-09-09 01:16:00,0.640449438202,0,0.5
2015-09-09 07:34:00,0.76404494382,0,0.5
2015-09-09 09:20:00,0.775280898876,0,0.5
2015-09-09 09:58:00,0.730337078652,0,0.5
2015-09-09 10:23:00,0.752808988764,0,0.5
2015-09-09 10:33:00,0.719101123596,0,0.5
2015-09-09 10:38:00,0.752808988764,0,0.5
2015-09-09 10:43:00,0.752808988764,0,0.5
2015-09-09 10:48:00,0.775280898876,0,0.5
2015-09-09 10:53:00,0.741573033708,0,0.5
2015-09-09 11:03:00,0.808988764045,0,0.5
2015-09-09 11:08:00,0.85393258427,0,0.5
2015-09-09 11:13:00,0.831460674157,0,0.5
2015-09-09 11:18:00,0.786516853933,0,0.5
2015-09-09 11:23:00,0.808988764045,0,0.5
2015-09-09 11:43:00,0.752808988764,0,0.5
2015-09-09 11:48:00,0.640449438202,0,0.5
2015-09-09 12:03:00,0.719101123596,0,0.5
2015-09-09 12:13:00,0.719101123596,0,0.5
2015-09-09 12:33:00,0.719101123596,0,0.5
2015-09-09 12:48:00,0.730337078652,0,0.5
2015-09-09 13:08:00,0.820224719101,0,0.5
2015-09-09 13:33:00,0.707865168539,0,0.5
2015-09-09 13:38:00,0.752808988764,0,0.5
2015-09-09 13:43:00,0.719101123596,0,0.5
2015-09-09 13:48:00,0.76404494382,0,0.5
2015-09-09 13:53:00,0.775280898876,0,0.5
2015-09-09 13:58:00,0.707865168539,0,0.5
2015-09-09 14:08:00,0.719101123596,0,0.5
2015-09-09 14:13:00,0.741573033708,0,0.5
2015-09-09 14:38:00,0.752808988764,0,0.5
2015-09-09 14:48:00,0.730337078652,0,0.5
2015-09-09 14:53:00,0.696629213483,0,0.5
2015-09-09 15:03:00,0.752808988764,0,0.5
2015-09-09 15:08:00,0.752808988764,0,0.5
2015-09-09 15:13:00,0.808988764045,0,0.5
2015-09-09 15:18:00,0.876404494382,0,0.5
2015-09-09 15:23:00,0.707865168539,0,0.5
2015-09-09 15:28:00,0.741573033708,0,0.5
2015-09-09 15:38:00,0.685393258427,0,0.5
2015-09-09 15:43:00,0.752808988764,0,0.5
2015-09-09 15:48:00,0.775280898876,0,0.5
2015-09-09 16:08:00,0.741573033708,0,0.5
2015-09-09 16:13:00,0.775280898876,0,0.5
2015-09-09 16:23:00,0.719101123596,0,0.5
2015-09-09 16:33:00,0.741573033708,0,0.5
2015-09-09 16:43:00,0.786516853933,0,0.5
2015-09-09 16:48:00,0.76404494382,0,0.5
2015-09-09 16:53:00,0.707865168539,0,0.5
2015-09-09 16:58:00,0.696629213483,0,0.5
2015-09-09 17:03:00,0.685393258427,0,0.5
2015-09-09 17:08:00,0.606741573034,0,0.5
2015-09-09 17:13:00,0.52808988764,0,0.5
2015-09-09 17:18:00,0.61797752809,0,0.5
2015-09-09 17:23:00,0.561797752809,0,0.5
2015-09-09 17:28:00,0.662921348315,0,0.5
2015-09-09 17:33:00,0.47191011236,0,0.5
2015-09-09 17:38:00,0.685393258427,0,0.5
2015-09-09 17:43:00,0.775280898876,0,0.5
2015-09-09 17:48:00,0.719101123596,0,0.5
2015-09-09 17:58:00,0.775280898876,0,0.5
2015-09-09 18:03:00,0.741573033708,0,0.5
2015-09-09 18:13:00,0.775280898876,0,0.5
2015-09-09 18:18:00,0.741573033708,0,0.5
2015-09-09 18:23:00,0.76404494382,0,0.5
2015-09-09 18:28:00,0.76404494382,0,0.5
2015-09-09 18:38:00,0.752808988764,0,0.5
2015-09-09 18:43:00,0.741573033708,0,0.5
2015-09-09 19:03:00,0.730337078652,0,0.5
2015-09-09 19:38:00,0.696629213483,0,0.5
2015-09-09 19:48:00,0.752808988764,0,0.5
2015-09-09 20:03:00,0.752808988764,0,0.5
2015-09-09 20:13:00,0.719101123596,0,0.5
2015-09-09 20:18:00,0.662921348315,0,0.5
2015-09-09 20:23:00,0.719101123596,0,0.5
2015-09-09 20:38:00,0.707865168539,0,0.5
2015-09-09 20:58:00,0.629213483146,0,0.5
2015-09-09 21:13:00,0.629213483146,0,0.5
2015-09-09 21:28:00,0.685393258427,0,0.5
2015-09-09 21:33:00,0.606741573034,0,0.5
2015-09-09 21:48:00,0.674157303371,0,0.5
2015-09-09 21:53:00,0.674157303371,0,0.5
2015-09-09 22:33:00,0.640449438202,0,0.5
2015-09-09 22:41:00,0.719101123596,0,0.5
2015-09-09 23:38:00,0.719101123596,0,0.5
2015-09-09 23:53:00,0.685393258427,0,0.5
2015-09-10 05:33:00,0.752808988764,0,0.5
2015-09-10 05:45:00,0.674157303371,0,0.5
2015-09-10 08:00:00,0.685393258427,0,0.5
2015-09-10 08:18:00,0.808988764045,0,0.5
2015-09-10 08:33:00,0.775280898876,0,0.5
2015-09-10 08:43:00,0.719101123596,0,0.5
2015-09-10 08:53:00,0.719101123596,0,0.5
2015-09-10 09:13:00,0.674157303371,0,0.5
2015-09-10 09:23:00,0.707865168539,0,0.5
2015-09-10 09:28:00,0.685393258427,0,0.5
2015-09-10 09:48:00,0.831460674157,0,0.5
2015-09-10 09:52:00,0.730337078652,0,0.5
2015-09-10 10:02:00,0.786516853933,0,0.5
2015-09-10 10:07:00,0.730337078652,0,0.5
2015-09-10 10:22:00,0.741573033708,0,0.5
2015-09-10 10:27:00,0.719101123596,0,0.5
2015-09-10 10:32:00,0.741573033708,0,0.5
2015-09-10 10:42:00,0.741573033708,0,0.5
2015-09-10 10:47:00,0.719101123596,0,0.5
2015-09-10 10:52:00,0.752808988764,0,0.5
2015-09-10 11:27:00,0.707865168539,0,0.5
2015-09-10 11:37:00,0.797752808989,0,0.5
2015-09-10 11:42:00,0.685393258427,0,0.5
2015-09-10 11:47:00,0.797752808989,0,0.5
2015-09-10 11:52:00,0.797752808989,0,0.5
2015-09-10 11:57:00,0.752808988764,0,0.5
2015-09-10 12:07:00,0.707865168539,0,0.5
2015-09-10 12:12:00,0.696629213483,0,0.5
2015-09-10 12:37:00,0.719101123596,0,0.5
2015-09-10 12:42:00,0.797752808989,0,0.5
2015-09-10 12:57:00,0.741573033708,0,0.5
2015-09-10 13:07:00,0.730337078652,0,0.5
2015-09-10 13:17:00,0.786516853933,0,0.5
2015-09-10 13:32:00,0.786516853933,0,0.5
2015-09-10 13:42:00,0.741573033708,0,0.5
2015-09-10 13:47:00,0.752808988764,0,0.5
2015-09-10 14:02:00,0.719101123596,0,0.5
2015-09-10 14:07:00,0.775280898876,0,0.5
2015-09-10 14:17:00,0.786516853933,0,0.5
2015-09-10 14:32:00,0.719101123596,0,0.5
2015-09-10 14:37:00,0.76404494382,0,0.5
2015-09-10 14:42:00,0.76404494382,0,0.5
2015-09-10 14:47:00,0.76404494382,0,0.5
2015-09-10 14:57:00,0.76404494382,0,0.5
2015-09-10 15:02:00,0.786516853933,0,0.5
2015-09-10 15:07:00,0.707865168539,0,0.5
2015-09-10 15:12:00,0.707865168539,0,0.5
2015-09-10 15:17:00,0.730337078652,0,0.5
2015-09-10 15:22:00,0.842696629213,0,0.5
2015-09-10 15:27:00,0.707865168539,0,0.5
2015-09-10 15:32:00,0.741573033708,0,0.5
2015-09-10 15:37:00,0.707865168539,0,0.5
2015-09-10 15:42:00,0.775280898876,0,0.5
2015-09-10 15:47:00,0.775280898876,0,0.5
2015-09-10 15:52:00,0.752808988764,0,0.5
2015-09-10 15:57:00,0.76404494382,0,0.5
2015-09-10 16:02:00,0.752808988764,0,0.5
2015-09-10 16:12:00,0.752808988764,0,0.5
2015-09-10 16:17:00,0.76404494382,0,0.5
2015-09-10 16:22:00,0.696629213483,0,0.5
2015-09-10 16:27:00,0.741573033708,0,0.5
2015-09-10 16:32:00,0.730337078652,0,0.5
2015-09-10 16:37:00,0.752808988764,0,0.5
2015-09-10 16:42:00,0.730337078652,0,0.5
2015-09-10 16:47:00,0.741573033708,0,0.5
2015-09-10 16:52:00,0.741573033708,0,0.5
2015-09-10 16:57:00,0.752808988764,0,0.5
2015-09-10 17:02:00,0.707865168539,0,0.5
2015-09-10 17:07:00,0.741573033708,0,0.5
2015-09-10 17:12:00,0.685393258427,0,0.5
2015-09-10 17:17:00,0.741573033708,0,0.5
2015-09-10 17:22:00,0.730337078652,0,0.5
2015-09-10 17:32:00,0.730337078652,0,0.5
2015-09-10 17:37:00,0.741573033708,0,0.5
2015-09-10 17:42:00,0.685393258427,0,0.5
2015-09-10 17:47:00,0.696629213483,0,0.5
2015-09-10 17:52:00,0.730337078652,0,0.5
2015-09-10 18:07:00,0.76404494382,0,0.5
2015-09-10 18:12:00,0.775280898876,0,0.5
2015-09-10 18:17:00,0.775280898876,0,0.5
2015-09-10 18:22:00,0.741573033708,0,0.5
2015-09-10 18:37:00,0.730337078652,0,0.5
2015-09-10 18:42:00,0.752808988764,0,0.5
2015-09-10 18:47:00,0.786516853933,0,0.5
2015-09-10 18:52:00,0.685393258427,0,0.5
2015-09-10 18:57:00,0.752808988764,0,0.5
2015-09-10 19:32:00,0.685393258427,0,0.5
2015-09-10 19:37:00,0.707865168539,0,0.5
2015-09-10 19:47:00,0.76404494382,0,0.5
2015-09-10 19:57:00,0.696629213483,0,0.5
2015-09-10 20:02:00,0.707865168539,0,0.5
2015-09-10 21:02:00,0.685393258427,0,0.5
2015-09-10 21:12:00,0.76404494382,0,0.5
2015-09-10 21:27:00,0.719101123596,0,0.5
2015-09-10 21:57:00,0.61797752809,0,0.5
2015-09-10 22:12:00,0.707865168539,0,0.5
2015-09-10 23:42:00,0.775280898876,0,0.5
2015-09-10 23:47:00,0.674157303371,0,0.5
2015-09-11 05:27:00,0.707865168539,0,0.5
2015-09-11 05:47:00,0.752808988764,0,0.5
2015-09-11 06:17:00,0.719101123596,0,0.5
2015-09-11 06:37:00,0.775280898876,0,0.5
2015-09-11 06:42:00,0.719101123596,0,0.5
2015-09-11 06:57:00,0.719101123596,0,0.5
2015-09-11 07:07:00,0.775280898876,0,0.5
2015-09-11 07:12:00,0.808988764045,0,0.5
2015-09-11 07:32:00,0.76404494382,0,0.5
2015-09-11 07:42:00,0.752808988764,0,0.5
2015-09-11 08:12:00,0.719101123596,0,0.5
2015-09-11 08:42:00,0.752808988764,0,0.5
2015-09-11 08:47:00,0.76404494382,0,0.5
2015-09-11 09:12:00,0.786516853933,0,0.5
2015-09-11 09:17:00,0.775280898876,0,0.5
2015-09-11 09:27:00,0.707865168539,0,0.5
2015-09-11 09:32:00,0.752808988764,0,0.5
2015-09-11 09:37:00,0.775280898876,0,0.5
2015-09-11 09:52:00,0.730337078652,0,0.5
2015-09-11 09:57:00,0.786516853933,0,0.5
2015-09-11 10:07:00,0.752808988764,0,0.5
2015-09-11 10:27:00,0.696629213483,0,0.5
2015-09-11 10:39:00,0.730337078652,0,0.5
2015-09-11 10:49:00,0.719101123596,0,0.5
2015-09-11 11:19:00,0.76404494382,0,0.5
2015-09-11 11:29:00,0.775280898876,0,0.5
2015-09-11 11:34:00,0.741573033708,0,0.5
2015-09-11 11:39:00,0.696629213483,0,0.5
2015-09-11 11:44:00,0.752808988764,0,0.5
2015-09-11 11:54:00,0.786516853933,0,0.5
2015-09-11 12:04:00,0.662921348315,0,0.5
2015-09-11 12:14:00,0.898876404494,0,0.5
2015-09-11 12:39:00,0.76404494382,0,0.5
2015-09-11 12:44:00,0.786516853933,0,0.5
2015-09-11 12:49:00,0.707865168539,0,0.5
2015-09-11 12:54:00,0.719101123596,0,0.5
2015-09-11 12:59:00,0.76404494382,0,0.5
2015-09-11 13:09:00,0.730337078652,0,0.5
2015-09-11 13:24:00,0.719101123596,0,0.5
2015-09-11 13:29:00,0.741573033708,0,0.5
2015-09-11 13:39:00,0.741573033708,0,0.5
2015-09-11 13:44:00,0.730337078652,0,0.5
2015-09-11 13:49:00,0.76404494382,0,0.5
2015-09-11 13:54:00,0.775280898876,0,0.5
2015-09-11 14:04:00,0.719101123596,0,0.5
2015-09-11 14:14:00,0.752808988764,0,0.5
2015-09-11 14:19:00,0.752808988764,0,0.5
2015-09-11 14:24:00,0.730337078652,0,0.5
2015-09-11 14:29:00,0.741573033708,0,0.5
2015-09-11 14:39:00,0.730337078652,0,0.5
2015-09-11 14:44:00,0.741573033708,0,0.5
2015-09-11 14:54:00,0.730337078652,0,0.5
2015-09-11 14:59:00,0.719101123596,0,0.5
2015-09-11 15:09:00,0.76404494382,0,0.5
2015-09-11 15:14:00,0.76404494382,0,0.5
2015-09-11 15:19:00,0.775280898876,0,0.5
2015-09-11 15:24:00,0.741573033708,0,0.5
2015-09-11 15:29:00,0.752808988764,0,0.5
2015-09-11 15:34:00,0.707865168539,1,0.5
2015-09-11 15:39:00,0.730337078652,1,0.5
2015-09-11 15:44:00,0.730337078652,1,0.5
2015-09-11 15:49:00,0.685393258427,1,0.5
2015-09-11 15:54:00,0.730337078652,1,0.5
2015-09-11 15:59:00,0.662921348315,1,0.5
2015-09-11 16:04:00,0.730337078652,1,0.5
2015-09-11 16:09:00,0.752808988764,1,0.5
2015-09-11 16:14:00,0.707865168539,1,0.5
2015-09-11 16:19:00,0.730337078652,1,0.5
2015-09-11 16:24:00,0.662921348315,1,0.5
2015-09-11 16:29:00,0.775280898876,1,0.5
2015-09-11 16:34:00,0.719101123596,1,0.5
2015-09-11 16:39:00,0.651685393258,1,0.5
2015-09-11 16:44:00,0.247191011236,1,0.5
2015-09-11 16:49:00,0.573033707865,1,0.5
2015-09-11 16:54:00,0.61797752809,1,0.5
2015-09-11 16:59:00,0.741573033708,1,0.5
2015-09-11 17:04:00,0.696629213483,1,0.5
2015-09-11 17:09:00,0.674157303371,1,0.5
2015-09-11 17:14:00,0.719101123596,1,0.5
2015-09-11 17:19:00,0.696629213483,1,0.5
2015-09-11 17:24:00,0.685393258427,1,0.5
2015-09-11 17:29:00,0.730337078652,1,0.5
2015-09-11 17:34:00,0.685393258427,1,0.5
2015-09-11 17:39:00,0.775280898876,1,0.5
2015-09-11 17:44:00,0.752808988764,1,0.5
2015-09-11 17:49:00,0.76404494382,1,0.5
2015-09-11 17:54:00,0.76404494382,1,0.5
2015-09-11 17:59:00,0.76404494382,0,0.5
2015-09-11 18:04:00,0.707865168539,0,0.5
2015-09-11 18:09:00,0.752808988764,0,0.5
2015-09-11 18:11:00,0.775280898876,0,0.5
2015-09-11 18:16:00,0.719101123596,0,0.5
2015-09-11 18:21:00,0.775280898876,0,0.5
2015-09-11 18:26:00,0.741573033708,0,0.5
2015-09-11 18:31:00,0.707865168539,0,0.5
2015-09-11 18:36:00,0.741573033708,0,0.5
2015-09-11 18:41:00,0.741573033708,0,0.5
2015-09-11 18:51:00,0.752808988764,0,0.5
2015-09-11 18:56:00,0.752808988764,0,0.5
2015-09-11 19:01:00,0.752808988764,0,0.5
2015-09-11 19:26:00,0.696629213483,0,0.5
2015-09-11 19:41:00,0.685393258427,0,0.5
2015-09-11 19:46:00,0.76404494382,0,0.5
2015-09-11 20:01:00,0.674157303371,0,0.5
2015-09-11 20:06:00,0.640449438202,0,0.5
2015-09-11 20:16:00,0.674157303371,0,0.5
2015-09-11 20:26:00,0.696629213483,0,0.5
2015-09-11 20:36:00,0.685393258427,0,0.5
2015-09-11 20:46:00,0.730337078652,0,0.5
2015-09-11 20:51:00,0.719101123596,0,0.5
2015-09-11 21:01:00,0.662921348315,0,0.5
2015-09-11 21:21:00,0.707865168539,0,0.5
2015-09-11 21:51:00,0.651685393258,0,0.5
2015-09-11 21:56:00,0.61797752809,0,0.5
2015-09-11 21:59:00,0.516853932584,0,0.5
2015-09-11 22:16:00,0.662921348315,0,0.5
2015-09-11 22:41:00,0.61797752809,0,0.5
2015-09-11 23:41:00,0.629213483146,0,0.5
2015-09-12 00:16:00,0.876404494382,0,0.5
2015-09-12 00:46:00,0.685393258427,0,0.5
2015-09-12 02:56:00,0.707865168539,0,0.5
2015-09-12 03:41:00,0.640449438202,0,0.5
2015-09-12 05:06:00,0.865168539326,0,0.5
2015-09-12 06:51:00,0.831460674157,0,0.5
2015-09-12 07:11:00,0.786516853933,0,0.5
2015-09-12 07:41:00,0.775280898876,0,0.5
2015-09-12 07:51:00,0.808988764045,0,0.5
2015-09-12 08:01:00,0.775280898876,0,0.5
2015-09-12 08:16:00,0.775280898876,0,0.5
2015-09-12 08:46:00,0.887640449438,0,0.5
2015-09-12 08:56:00,0.730337078652,0,0.5
2015-09-12 09:16:00,0.752808988764,0,0.5
2015-09-12 09:21:00,0.842696629213,0,0.5
2015-09-12 09:26:00,0.730337078652,0,0.5
2015-09-12 09:56:00,0.76404494382,0,0.5
2015-09-12 10:06:00,0.76404494382,0,0.5
2015-09-12 10:16:00,0.775280898876,0,0.5
2015-09-12 10:46:00,0.797752808989,0,0.5
2015-09-12 10:51:00,0.741573033708,0,0.5
2015-09-12 10:56:00,0.786516853933,0,0.5
2015-09-12 11:06:00,0.707865168539,0,0.5
2015-09-12 11:31:00,0.741573033708,0,0.5
2015-09-12 11:41:00,0.831460674157,0,0.5
2015-09-12 11:46:00,0.752808988764,0,0.851448987073
2015-09-12 12:06:00,0.741573033708,0,0.838666353577
2015-09-12 12:11:00,0.786516853933,0,0.851448987073
2015-09-12 12:16:00,0.719101123596,0,0.818186764978
2015-09-12 12:26:00,0.741573033708,0,0.780618887803
2015-09-12 12:31:00,0.85393258427,0,0.851448987073
2015-09-12 12:36:00,0.741573033708,0,0.825186982367
2015-09-12 12:46:00,0.741573033708,0,0.845144783414
2015-09-12 12:51:00,0.752808988764,0,0.851448987073
2015-09-12 13:06:00,0.775280898876,0,0.818186764978
2015-09-12 13:11:00,0.741573033708,0,0.811013781223
2015-09-12 13:16:00,0.685393258427,0,0.772603040601
2015-09-12 13:21:00,0.741573033708,0,0.706989105952
2015-09-12 13:36:00,0.741573033708,0,0.725364555222
2015-09-12 13:41:00,0.719101123596,0,0.706989105952
2015-09-12 14:16:00,0.808988764045,0,0.668626569283
2015-09-12 14:21:00,0.76404494382,0,0.688062861337
2015-09-12 14:31:00,0.775280898876,0,0.716248058291
2015-09-12 14:41:00,0.775280898876,0,0.734334188639
2015-09-12 14:56:00,0.76404494382,0,0.725364555222
2015-09-12 15:01:00,0.797752808989,0,0.768665992761
2015-09-12 15:11:00,0.775280898876,0,0.829307670114
2015-09-12 15:16:00,0.707865168539,0,0.807868466983
2015-09-12 15:21:00,0.752808988764,0,0.815191190998
2015-09-12 15:31:00,0.730337078652,0,0.822337891079
2015-09-12 15:36:00,0.797752808989,0,0.815191190998
2015-09-12 15:41:00,0.786516853933,0,0.829307670114
2015-09-12 15:46:00,0.752808988764,0,0.815191190998
2015-09-12 15:51:00,0.730337078652,0,0.784857409191
2015-09-12 15:56:00,0.775280898876,0,0.792699960512
2015-09-12 16:01:00,0.752808988764,0,0.760322130349
2015-09-12 16:11:00,0.719101123596,0,0.716248058291
2015-09-12 16:16:00,0.797752808989,0,0.784857409191
2015-09-12 16:21:00,0.719101123596,0,0.760322130349
2015-09-12 16:31:00,0.786516853933,0,0.800370900279
2015-09-12 16:36:00,0.719101123596,0,0.743152835675
2015-09-12 16:41:00,0.707865168539,0,0.678405759785
2015-09-12 16:46:00,0.76404494382,0,0.688062861337
2015-09-12 16:51:00,0.752808988764,0,0.706989105952
2015-09-12 16:56:00,0.797752808989,0,0.725364555222
2015-09-12 17:01:00,0.786516853933,0,0.751816663026
2015-09-12 17:06:00,0.76404494382,0,0.784857409191
2015-09-12 17:21:00,0.786516853933,0,0.776845302414
2015-09-12 17:46:00,0.76404494382,0,0.807868466983
2015-09-12 18:21:00,0.808988764045,0,0.822337891079
2015-09-12 18:41:00,0.775280898876,0,0.855409280519
2015-09-12 19:01:00,0.752808988764,0,0.878678308914
2015-09-12 19:21:00,0.685393258427,0,0.836099910146
2015-09-12 19:26:00,0.76404494382,0,0.842714266707
2015-09-12 19:46:00,0.797752808989,0,0.842714266707
2015-09-12 19:51:00,0.719101123596,0,0.800370900279
2015-09-12 20:06:00,0.662921348315,0,0.725364555222
2015-09-12 20:31:00,0.685393258427,0,0.63861503218
2015-09-12 20:51:00,0.730337078652,0,0.607725084928
2015-09-12 21:21:00,0.752808988764,0,0.554795641072
2015-09-12 21:36:00,0.696629213483,0,0.52076101113
2015-09-12 21:51:00,0.775280898876,0,0.50086945753
2015-09-12 22:46:00,0.820224719101,0,0.628407213129
2015-09-12 23:01:00,0.685393258427,0,0.554795641072
2015-09-12 23:06:00,0.651685393258,0,0.585035574762
2015-09-12 23:31:00,0.651685393258,0,0.647107138197
2015-09-13 06:31:00,0.685393258427,0,0.626757997322
2015-09-13 07:51:00,0.775280898876,0,0.542330494478
2015-09-13 08:01:00,0.685393258427,0,0.585035574762
2015-09-13 08:26:00,0.741573033708,0,0.595576734452
2015-09-13 09:21:00,0.76404494382,0,0.53155733287
2015-09-13 09:26:00,0.797752808989,0,0.509949434658
2015-09-13 09:41:00,0.741573033708,0,0.585035574762
2015-09-13 10:06:00,0.76404494382,0,0.509949434658
2015-09-13 10:11:00,0.797752808989,0,0.628407213129
2015-09-13 10:16:00,0.719101123596,0,0.688062861337
2015-09-13 10:46:00,0.842696629213,0,0.807868466983
2015-09-13 10:51:00,0.741573033708,0,0.784857409191
2015-09-13 10:56:00,0.797752808989,0,0.855409280519
2015-09-13 11:06:00,0.775280898876,0,0.873124040292
2015-09-13 11:11:00,0.719101123596,0,0.849150662509
2015-09-13 11:26:00,0.786516853933,0,0.842714266707
2015-09-13 11:31:00,0.76404494382,0,0.855409280519
2015-09-13 11:46:00,0.707865168539,0,0.822337891079
2015-09-13 11:51:00,0.741573033708,0,0.784857409191
2015-09-13 11:56:00,0.76404494382,0,0.815191190998
2015-09-13 12:06:00,0.730337078652,0,0.734334188639
2015-09-13 12:21:00,0.808988764045,0,0.784857409191
2015-09-13 12:26:00,0.775280898876,0,0.768665992761
2015-09-13 12:31:00,0.730337078652,0,0.734334188639
2015-09-13 12:41:00,0.730337078652,0,0.743152835675
2015-09-13 12:53:00,0.730337078652,0,0.697592386313
2015-09-13 12:58:00,0.775280898876,0,0.706989105952
2015-09-13 13:03:00,0.741573033708,0,0.734334188639
2015-09-13 13:08:00,0.797752808989,0,0.776845302414
2015-09-13 13:13:00,0.76404494382,0,0.776845302414
2015-09-13 13:18:00,0.730337078652,0,0.776845302414
2015-09-13 13:23:00,0.752808988764,0,0.734334188639
2015-09-13 13:28:00,0.719101123596,0,0.688062861337
2015-09-13 13:38:00,0.741573033708,0,0.697592386313
2015-09-13 13:43:00,0.707865168539,0,0.678405759785
2015-09-13 13:53:00,0.730337078652,0,0.678405759785
2015-09-13 13:58:00,0.752808988764,0,0.658731027499
2015-09-13 14:13:00,0.752808988764,0,0.668626569283
2015-09-13 14:23:00,0.741573033708,0,0.618108288424
2015-09-13 14:28:00,0.651685393258,0,0.511687710283
2015-09-13 14:38:00,0.707865168539,0,0.509949434658
2015-09-13 14:48:00,0.741573033708,0,0.52076101113
2015-09-13 14:53:00,0.719101123596,0,0.52076101113
2015-09-13 15:13:00,0.741573033708,0,0.52076101113
2015-09-13 15:23:00,0.730337078652,0,0.50086945753
2015-09-13 15:28:00,0.752808988764,0,0.522497369862
2015-09-13 15:33:00,0.730337078652,0,0.50086945753
2015-09-13 15:38:00,0.797752808989,0,0.544059206751
2015-09-13 15:43:00,0.786516853933,0,0.586734036452
2015-09-13 15:48:00,0.76404494382,0,0.688062861337
2015-09-13 16:03:00,0.674157303371,0,0.658731027499
2015-09-13 16:08:00,0.741573033708,0,0.579122719835
2015-09-13 16:18:00,0.730337078652,0,0.59207988969
2015-09-13 16:28:00,0.820224719101,0,0.679263458673
2015-09-13 16:48:00,0.719101123596,0,0.667271502733
2015-09-13 16:53:00,0.76404494382,0,0.679263458673
2015-09-13 16:58:00,0.707865168539,0,0.65510591534
2015-09-13 17:03:00,0.741573033708,0,0.59207988969
2015-09-13 17:13:00,0.76404494382,0,0.566079260667
2015-09-13 17:18:00,0.685393258427,0,0.526446743827
2015-09-13 17:23:00,0.696629213483,0,0.500062567717
2015-09-13 17:43:00,0.808988764045,0,0.579122719835
2015-09-13 17:48:00,0.707865168539,0,0.552963443533
2015-09-13 17:53:00,0.741573033708,0,0.539664922915
2015-09-13 17:58:00,0.719101123596,0,0.539664922915
2015-09-13 18:08:00,0.741573033708,0,0.565955842529
2015-09-13 18:18:00,0.719101123596,0,0.552839409901
2015-09-13 18:23:00,0.820224719101,0,0.539789437387
2015-09-13 18:33:00,0.719101123596,0,0.513199379225
2015-09-13 18:38:00,0.775280898876,0,0.59207988969
2015-09-13 18:43:00,0.775280898876,0,0.679263458673
2015-09-13 18:48:00,0.76404494382,0,0.630298839333
2015-09-13 18:58:00,0.76404494382,0,0.69107120201
2015-09-13 19:08:00,0.696629213483,0,0.642777817272
2015-09-13 19:13:00,0.696629213483,0,0.617681090087
2015-09-13 19:33:00,0.719101123596,0,0.59207988969
2015-09-13 19:43:00,0.61797752809,0,0.526446743827
2015-09-13 19:48:00,0.76404494382,0,0.591958097982
2015-09-13 20:13:00,0.696629213483,0,0.617561433658
2015-09-13 20:33:00,0.730337078652,0,0.66715752726
2015-09-13 20:43:00,0.730337078652,0,0.713987921533
2015-09-13 20:48:00,0.707865168539,0,0.767707220576
2015-09-13 21:08:00,0.752808988764,0,0.777734927821
2015-09-13 21:28:00,0.606741573034,0,0.848625524788
2015-09-13 22:48:00,0.831460674157,0,0.736166233678
2015-09-13 22:53:00,0.76404494382,0,0.690960700438
2015-09-13 23:33:00,0.685393258427,0,0.617561433658
2015-09-14 00:33:00,0.752808988764,0,0.630180432971
2015-09-14 05:53:00,0.730337078652,0,0.591958097982
2015-09-14 06:18:00,0.730337078652,0,0.591958097982
2015-09-14 06:28:00,0.831460674157,0,0.526571602897
2015-09-14 06:48:00,0.719101123596,0,0.539789437387
2015-09-14 06:53:00,0.752808988764,0,0.539789437387
2015-09-14 06:58:00,0.786516853933,0,0.736268733071
2015-09-14 07:08:00,0.76404494382,0,0.667271502733
2015-09-14 07:28:00,0.741573033708,0,0.642777817272
2015-09-14 07:33:00,0.752808988764,0,0.714094582394
2015-09-14 07:38:00,0.741573033708,0,0.702684718034
2015-09-14 07:48:00,0.786516853933,0,0.757530785564
2015-09-14 07:58:00,0.741573033708,0,0.76780298293
2015-09-14 08:13:00,0.719101123596,0,0.65510591534
2015-09-14 08:28:00,0.730337078652,0,0.667271502733
2015-09-14 08:33:00,0.707865168539,0,0.617681090087
2015-09-14 08:48:00,0.662921348315,0,0.526446743827
2015-09-14 08:53:00,0.76404494382,0,0.526446743827
2015-09-14 09:03:00,0.730337078652,0,0.539664922915
2015-09-14 09:08:00,0.808988764045,0,0.526571602897
2015-09-14 09:13:00,0.775280898876,0,0.566079260667
2015-09-14 09:23:00,0.797752808989,0,0.579122719835
2015-09-14 09:28:00,0.685393258427,0,0.51332444551
2015-09-14 09:33:00,0.775280898876,0,0.579122719835
2015-09-14 09:38:00,0.76404494382,0,0.617681090087
2015-09-14 09:43:00,0.76404494382,0,0.679263458673
2015-09-14 09:48:00,0.76404494382,0,0.777828337622
2015-09-14 09:53:00,0.786516853933,0,0.797119679075
2015-09-14 09:58:00,0.752808988764,0,0.815373823331
2015-09-14 10:13:00,0.696629213483,0,0.714094582394
2015-09-14 10:18:00,0.752808988764,0,0.69107120201
2015-09-14 10:23:00,0.752808988764,0,0.642777817272
2015-09-14 10:28:00,0.730337078652,0,0.69107120201
2015-09-14 10:33:00,0.775280898876,0,0.69107120201
2015-09-14 10:43:00,0.775280898876,0,0.702684718034
2015-09-14 10:48:00,0.719101123596,0,0.65510591534
2015-09-14 11:03:00,0.820224719101,0,0.714094582394
2015-09-14 11:13:00,0.741573033708,0,0.667271502733
2015-09-14 11:18:00,0.707865168539,0,0.617681090087
2015-09-14 11:23:00,0.775280898876,0,0.702684718034
2015-09-14 11:28:00,0.775280898876,0,0.725291982029
2015-09-14 11:33:00,0.730337078652,0,0.702684718034
2015-09-14 11:43:00,0.741573033708,0,0.714094582394
2015-09-14 12:03:00,0.696629213483,0,0.630298839333
2015-09-14 12:08:00,0.775280898876,0,0.630298839333
2015-09-14 12:13:00,0.696629213483,0,0.604937121079
2015-09-14 12:23:00,0.786516853933,0,0.566079260667
2015-09-14 12:28:00,0.685393258427,0,0.500062567717
2015-09-14 12:38:00,0.741573033708,0,0.539789437387
2015-09-14 12:43:00,0.752808988764,0,0.51332444551
2015-09-14 12:48:00,0.808988764045,0,0.552963443533
2015-09-14 12:53:00,0.741573033708,0,0.566079260667
2015-09-14 13:15:00,0.719101123596,0,0.539789437387
2015-09-14 13:20:00,0.696629213483,0,0.539789437387
2015-09-14 13:25:00,0.797752808989,0,0.566079260667
2015-09-14 13:35:00,0.719101123596,0,0.59207988969
2015-09-14 13:40:00,0.707865168539,0,0.500062567717
2015-09-14 13:45:00,0.786516853933,0,0.617681090087
2015-09-14 13:50:00,0.730337078652,0,0.604937121079
2015-09-14 13:55:00,0.651685393258,0,0.513199379225
2015-09-14 14:15:00,0.629213483146,0,0.713987921533
2015-09-14 14:20:00,0.730337078652,0,0.725187364793
2015-09-14 14:25:00,0.786516853933,0,0.65499035396
2015-09-14 14:35:00,0.76404494382,0,0.579000049823
2015-09-14 14:40:00,0.741573033708,0,0.686466417172
2015-09-14 14:45:00,0.730337078652,0,0.672530105134
2015-09-14 14:50:00,0.741573033708,0,0.629324393049
2015-09-14 14:55:00,0.719101123596,0,0.713539963282
2015-09-14 15:00:00,0.775280898876,0,0.658349117789
2015-09-14 15:10:00,0.730337078652,0,0.55382114009
2015-09-14 15:15:00,0.730337078652,0,0.585200559543
2015-09-14 15:20:00,0.674157303371,0,0.508166970059
2015-09-14 15:30:00,0.752808988764,0,0.538387771547
2015-09-14 15:35:00,0.76404494382,0,0.538387771547
2015-09-14 15:40:00,0.696629213483,0,0.599544121227
2015-09-14 15:50:00,0.741573033708,0,0.584421801258
2015-09-14 15:55:00,0.730337078652,0,0.599544121227
2015-09-14 16:00:00,0.719101123596,0,0.599544121227
2015-09-14 16:05:00,0.741573033708,0,0.643941030261
2015-09-14 16:20:00,0.719101123596,0,0.658349117789
2015-09-14 16:25:00,0.730337078652,0,0.658349117789
2015-09-14 16:30:00,0.719101123596,0,0.599544121227
2015-09-14 16:35:00,0.707865168539,0,0.658349117789
2015-09-14 16:40:00,0.730337078652,0,0.700141517307
2015-09-14 16:45:00,0.685393258427,0,0.713539963282
2015-09-14 16:50:00,0.719101123596,0,0.739450876828
2015-09-14 16:55:00,0.741573033708,0,0.726647455386
2015-09-14 17:00:00,0.651685393258,0,0.798534050423
2015-09-14 17:05:00,0.393258426966,0,0.979513514807
2015-09-14 17:10:00,0.224719101124,0,0.99991420483
2015-09-14 17:15:00,0.573033707865,0,0.999991568218
2015-09-14 17:20:00,0.662921348315,0,0.999
2015-09-14 17:25:00,0.561797752809,0,0.999
2015-09-14 17:30:00,0.752808988764,0,0.999
2015-09-14 17:35:00,0.662921348315,0,0.999
2015-09-14 17:40:00,0.460674157303,0,0.999
2015-09-14 17:45:00,0.719101123596,0,0.999
2015-09-14 17:50:00,0.651685393258,0,0.999
2015-09-14 17:55:00,0.76404494382,0,0.999
2015-09-14 18:00:00,0.752808988764,0,0.997893283575
2015-09-14 18:05:00,0.730337078652,0,0.989732972724
2015-09-14 18:10:00,0.730337078652,0,0.981363084363
2015-09-14 18:20:00,0.730337078652,0,0.933001271757
2015-09-14 18:25:00,0.752808988764,0,0.933001271757
2015-09-14 18:30:00,0.741573033708,0,0.889878568185
2015-09-14 18:35:00,0.741573033708,0,0.599544121227
2015-09-14 18:45:00,0.719101123596,0,0.599544121227
2015-09-14 18:50:00,0.730337078652,0,0.508166970059
2015-09-14 19:01:00,0.752808988764,0,0.507370288048
2015-09-14 19:05:00,0.752808988764,0,0.507370288048
2015-09-14 19:15:00,0.730337078652,0,0.507370288048
2015-09-14 19:20:00,0.76404494382,0,0.539180836111
2015-09-14 19:30:00,0.707865168539,0,0.508166970059
2015-09-14 19:35:00,0.752808988764,0,0.508166970059
2015-09-14 19:45:00,0.719101123596,0,0.522896370979
2015-09-14 20:00:00,0.719101123596,0,0.55382114009
2015-09-14 20:10:00,0.730337078652,0,0.538387771547
2015-09-14 20:15:00,0.640449438202,0,0.658349117789
2015-09-14 20:20:00,0.786516853933,0,0.614518661915
2015-09-14 20:25:00,0.674157303371,0,0.713539963282
2015-09-14 20:30:00,0.797752808989,0,0.629324393049
2015-09-14 20:35:00,0.707865168539,0,0.700141517307
2015-09-14 20:40:00,0.707865168539,0,0.700141517307
2015-09-14 20:45:00,0.741573033708,0,0.713539963282
2015-09-14 20:50:00,0.719101123596,0,0.713539963282