timestamp,value,is_anomaly,anomaly_score
2015-08-31 18:22:00,0.786516853933,0,0.5
2015-08-31 18:32:00,0.674157303371,0,0.5
2015-08-31 18:57:00,0.719101123596,0,0.5
2015-08-31 19:07:00,0.831460674157,0,0.5
2015-08-31 19:12:00,0.786516853933,0,0.5
2015-08-31 19:17:00,0.797752808989,0,0.5
2015-08-31 19:47:00,0.47191011236,0,0.5
2015-08-31 20:12:00,0.85393258427,0,0.5
2015-08-31 20:27:00,0.61797752809,0,0.5
2015-08-31 20:42:00,0.719101123596,0,0.5
2015-08-31 20:47:00,0.741573033708,0,0.5
2015-08-31 20:52:00,0.820224719101,0,0.5
2015-08-31 21:22:00,0.550561797753,0,0.5
2015-08-31 21:27:00,0.76404494382,0,0.5
2015-08-31 21:32:00,0.573033707865,0,0.5
2015-08-31 21:47:00,0.606741573034,0,0.5
2015-08-31 21:57:00,0.539325842697,0,0.5
2015-08-31 22:07:00,0.76404494382,0,0.5
2015-08-31 22:17:00,0.573033707865,0,0.5
2015-08-31 22:22:00,0.752808988764,0,0.5
2015-08-31 22:27:00,0.696629213483,0,0.5
2015-08-31 23:37:00,0.539325842697,0,0.5
2015-08-31 23:57:00,0.595505617978,0,0.5
2015-09-01 00:07:00,0.550561797753,0,0.5
2015-09-01 00:12:00,0.415730337079,0,0.5
2015-09-01 00:17:00,0.258426966292,0,0.5
2015-09-01 00:22:00,0.303370786517,0,0.5
2015-09-01 00:47:00,0.595505617978,0,0.5
2015-09-01 00:57:00,0.651685393258,0,0.5
2015-09-01 01:07:00,0.707865168539,0,0.5
2015-09-01 01:32:00,0.752808988764,0,0.5
2015-09-01 01:52:00,0.640449438202,0,0.5
2015-09-01 02:22:00,0.674157303371,0,0.5
2015-09-01 02:37:00,0.550561797753,0,0.5
2015-09-01 02:47:00,0.483146067416,0,0.5
2015-09-01 03:02:00,0.651685393258,0,0.5
2015-09-01 03:27:00,0.516853932584,0,0.5
2015-09-01 03:47:00,0.584269662921,0,0.5
2015-09-01 03:52:00,0.38202247191,0,0.5
2015-09-01 04:02:00,0.595505617978,0,0.5
2015-09-01 04:07:00,0.696629213483,0,0.5
2015-09-01 04:22:00,0.786516853933,0,0.5
2015-09-01 04:27:00,0.808988764045,0,0.5
2015-09-01 04:37:00,0.483146067416,0,0.5
2015-09-01 04:52:00,0.550561797753,0,0.5
2015-09-01 05:02:00,0.865168539326,0,0.5
2015-09-01 05:12:00,0.730337078652,0,0.5
2015-09-01 05:20:00,0.741573033708,0,0.5
2015-09-01 05:25:00,0.719101123596,0,0.5
2015-09-01 05:30:00,0.76404494382,0,0.5
2015-09-01 05:40:00,0.651685393258,0,0.5
2015-09-01 05:45:00,0.76404494382,0,0.5
2015-09-01 05:50:00,0.674157303371,0,0.5
2015-09-01 06:10:00,0.61797752809,0,0.5
2015-09-01 06:15:00,0.76404494382,0,0.5
2015-09-01 06:20:00,0.550561797753,0,0.5
2015-09-01 06:25:00,0.719101123596,0,0.5
2015-09-01 06:30:00,0.629213483146,0,0.5
2015-09-01 06:35:00,0.719101123596,0,0.5
2015-09-01 06:40:00,0.752808988764,0,0.5
2015-09-01 06:45:00,0.752808988764,0,0.5
2015-09-01 06:50:00,0.52808988764,0,0.5
2015-09-01 06:55:00,0.47191011236,0,0.5
2015-09-01 07:00:00,0.719101123596,0,0.5
2015-09-01 07:05:00,0.775280898876,0,0.5
2015-09-01 07:10:00,0.685393258427,0,0.5
2015-09-01 07:15:00,0.719101123596,0,0.5
2015-09-01 07:20:00,0.730337078652,0,0.5
2015-09-01 07:25:00,0.775280898876,0,0.5
2015-09-01 07:30:00,0.685393258427,0,0.5
2015-09-01 07:40:00,0.797752808989,0,0.5
2015-09-01 07:45:00,0.696629213483,0,0.5
2015-09-01 07:50:00,0.831460674157,0,0.5
2015-09-01 07:55:00,0.730337078652,0,0.5
2015-09-01 08:00:00,0.921348314607,0,0.5
2015-09-01 08:05:00,0.629213483146,0,0.5
2015-09-01 08:10:00,0.741573033708,0,0.5
2015-09-01 08:15:00,0.752808988764,0,0.5
2015-09-01 08:30:00,0.707865168539,0,0.5
2015-09-01 08:35:00,0.820224719101,0,0.5
2015-09-01 08:40:00,0.752808988764,0,0.5
2015-09-01 08:45:00,0.674157303371,0,0.5
2015-09-01 08:50:00,0.752808988764,0,0.5
2015-09-01 08:55:00,0.61797752809,0,0.5
2015-09-01 09:00:00,0.61797752809,0,0.5
2015-09-01 09:05:00,0.539325842697,0,0.5
2015-09-01 09:10:00,0.831460674157,0,0.5
2015-09-01 09:15:00,0.640449438202,0,0.5
2015-09-01 09:20:00,0.696629213483,0,0.5
2015-09-01 09:25:00,0.831460674157,0,0.5
2015-09-01 09:30:00,0.651685393258,0,0.5
2015-09-01 09:50:00,0.719101123596,0,0.5
2015-09-01 10:05:00,0.696629213483,0,0.5
2015-09-01 10:10:00,0.898876404494,0,0.5
2015-09-01 10:20:00,0.539325842697,0,0.5
2015-09-01 10:35:00,0.685393258427,0,0.5
2015-09-01 10:45:00,0.820224719101,0,0.5
2015-09-01 10:50:00,0.797752808989,0,0.5
2015-09-01 10:55:00,0.651685393258,0,0.5
2015-09-01 10:59:00,0.640449438202,0,0.5
2015-09-01 11:05:00,0.730337078652,0,0.5
2015-09-01 11:10:00,0.719101123596,0,0.5
2015-09-01 11:15:00,0.584269662921,0,0.5
2015-09-01 11:25:00,0.426966292135,0,0.5
2015-09-01 11:30:00,0.674157303371,0,0.5
2015-09-01 11:45:00,0.516853932584,0,0.5
2015-09-01 11:50:00,0.741573033708,0,0.5
2015-09-01 11:55:00,0.606741573034,0,0.5
2015-09-01 12:00:00,0.741573033708,0,0.5
2015-09-01 12:05:00,0.573033707865,0,0.5
2015-09-01 12:10:00,0.752808988764,0,0.5
2015-09-01 12:25:00,0.595505617978,0,0.5
2015-09-01 12:40:00,0.629213483146,0,0.5
2015-09-01 12:45:00,0.516853932584,0,0.5
2015-09-01 12:55:00,0.539325842697,0,0.5
2015-09-01 13:00:00,0.741573033708,0,0.5
2015-09-01 13:10:00,0.786516853933,0,0.5
2015-09-01 13:20:00,0.707865168539,0,0.5
2015-09-01 13:35:00,0.61797752809,0,0.5
2015-09-01 13:40:00,0.719101123596,0,0.5
2015-09-01 13:45:00,0.76404494382,0,0.5
2015-09-01 13:50:00,0.730337078652,0,0.5
2015-09-01 13:55:00,0.808988764045,0,0.5
2015-09-01 14:00:00,0.831460674157,0,0.5
2015-09-01 14:05:00,0.808988764045,0,0.5
2015-09-01 14:20:00,0.640449438202,0,0.5
2015-09-01 14:25:00,0.820224719101,0,0.5
2015-09-01 14:35:00,0.640449438202,0,0.5
2015-09-01 14:40:00,0.595505617978,0,0.5
2015-09-01 14:45:00,0.76404494382,0,0.5
2015-09-01 14:50:00,0.629213483146,0,0.5
2015-09-01 14:55:00,0.820224719101,0,0.5
2015-09-01 15:20:00,0.629213483146,0,0.5
2015-09-01 17:15:00,0.752808988764,0,0.5
2015-09-01 17:25:00,0.786516853933,0,0.5
2015-09-01 17:30:00,0.797752808989,0,0.5
2015-09-01 17:35:00,0.921348314607,0,0.5
2015-09-01 17:45:00,0.61797752809,0,0.5
2015-09-01 17:55:00,0.539325842697,0,0.5
2015-09-01 18:10:00,0.685393258427,0,0.5
2015-09-01 18:45:00,0.820224719101,0,0.5
2015-09-01 18:50:00,0.820224719101,0,0.5
2015-09-01 19:00:00,0.719101123596,0,0.5
2015-09-01 19:05:00,0.752808988764,0,0.5
2015-09-01 19:10:00,0.674157303371,0,0.5
2015-09-01 19:20:00,0.741573033708,0,0.5
2015-09-01 19:25:00,0.52808988764,0,0.5
2015-09-01 19:30:00,0.831460674157,0,0.5
2015-09-01 19:40:00,0.662921348315,0,0.5
2015-09-01 19:55:00,0.561797752809,0,0.5
2015-09-01 20:00:00,0.696629213483,0,0.5
2015-09-01 20:05:00,0.730337078652,0,0.5
2015-09-01 20:10:00,0.76404494382,0,0.5
2015-09-01 20:20:00,0.730337078652,0,0.5
2015-09-01 20:25:00,0.584269662921,0,0.5
2015-09-01 20:30:00,0.651685393258,0,0.5
2015-09-01 20:45:00,0.662921348315,0,0.5
2015-09-01 20:55:00,0.674157303371,0,0.5
2015-09-01 21:05:00,0.505617977528,0,0.5
2015-09-01 21:25:00,0.674157303371,0,0.5
2015-09-01 21:40:00,0.550561797753,0,0.5
2015-09-01 22:30:00,0.797752808989,0,0.5
2015-09-01 22:35:00,0.865168539326,0,0.5
2015-09-01 22:40:00,0.831460674157,0,0.5
2015-09-01 22:45:00,0.85393258427,0,0.5
2015-09-01 23:01:00,0.640449438202,0,0.5
2015-09-01 23:05:00,0.662921348315,0,0.5
2015-09-01 23:10:00,0.651685393258,0,0.5
2015-09-01 23:20:00,0.573033707865,0,0.5
2015-09-01 23:40:00,0.76404494382,0,0.5
2015-09-02 00:00:00,0.629213483146,0,0.5
2015-09-02 00:05:00,0.573033707865,0,0.5
2015-09-02 00:15:00,0.494382022472,0,0.5
2015-09-02 00:20:00,0.516853932584,0,0.5
2015-09-02 00:35:00,0.606741573034,0,0.5
2015-09-02 01:00:00,0.561797752809,0,0.5
2015-09-02 01:35:00,0.61797752809,0,0.5
2015-09-02 02:10:00,0.662921348315,0,0.5
2015-09-02 02:25:00,0.573033707865,0,0.5
2015-09-02 02:40:00,0.606741573034,0,0.5
2015-09-02 03:05:00,0.842696629213,0,0.5
2015-09-02 03:10:00,0.876404494382,0,0.5
2015-09-02 03:35:00,0.808988764045,0,0.5
2015-09-02 04:15:00,0.516853932584,0,0.5
2015-09-02 04:20:00,0.52808988764,0,0.5
2015-09-02 04:25:00,0.438202247191,0,0.5
2015-09-02 04:30:00,0.61797752809,0,0.5
2015-09-02 04:35:00,0.786516853933,0,0.5
2015-09-02 04:45:00,0.629213483146,0,0.5
2015-09-02 04:50:00,0.573033707865,0,0.5
2015-09-02 05:00:00,0.752808988764,0,0.5
2015-09-02 05:05:00,0.775280898876,0,0.5
2015-09-02 05:15:00,0.662921348315,0,0.5
2015-09-02 05:20:00,0.640449438202,0,0.5
2015-09-02 05:25:00,0.719101123596,0,0.5
2015-09-02 05:30:00,0.719101123596,0,0.5
2015-09-02 05:35:00,0.752808988764,0,0.5
2015-09-02 05:45:00,0.820224719101,0,0.5
2015-09-02 05:50:00,0.707865168539,0,0.5
2015-09-02 05:55:00,0.76404494382,0,0.5
2015-09-02 06:00:00,0.786516853933,0,0.5
2015-09-02 06:05:00,0.775280898876,0,0.5
2015-09-02 06:10:00,0.719101123596,0,0.5
2015-09-02 06:15:00,0.76404494382,0,0.5
2015-09-02 06:20:00,0.842696629213,0,0.5
2015-09-02 06:25:00,0.741573033708,0,0.5
2015-09-02 06:30:00,0.662921348315,0,0.5
2015-09-02 06:35:00,0.775280898876,0,0.5
2015-09-02 06:40:00,0.662921348315,0,0.5
2015-09-02 06:45:00,0.61797752809,0,0.5
2015-09-02 06:50:00,0.719101123596,0,0.5
2015-09-02 06:55:00,0.707865168539,0,0.5
2015-09-02 07:00:00,0.606741573034,0,0.5
2015-09-02 07:05:00,0.494382022472,0,0.5
2015-09-02 07:10:00,0.61797752809,0,0.5
2015-09-02 07:15:00,0.584269662921,0,0.5
2015-09-02 07:20:00,0.76404494382,0,0.5
2015-09-02 07:25:00,0.629213483146,0,0.5
2015-09-02 07:30:00,0.595505617978,0,0.5
2015-09-02 07:35:00,0.741573033708,0,0.5
2015-09-02 07:40:00,0.752808988764,0,0.5
2015-09-02 07:45:00,0.752808988764,0,0.5
2015-09-02 07:50:00,0.707865168539,0,0.5
2015-09-02 07:55:00,0.76404494382,0,0.5
2015-09-02 08:00:00,0.730337078652,0,0.5
2015-09-02 08:05:00,0.707865168539,0,0.5
2015-09-02 08:10:00,0.741573033708,0,0.5
2015-09-02 08:15:00,0.719101123596,0,0.5
2015-09-02 08:20:00,0.584269662921,0,0.5
2015-09-02 08:30:00,0.685393258427,0,0.5
2015-09-02 08:35:00,0.741573033708,0,0.5
2015-09-02 08:45:00,0.550561797753,0,0.5
2015-09-02 08:50:00,0.415730337079,0,0.5
2015-09-02 08:55:00,0.707865168539,0,0.5
2015-09-02 09:00:00,0.786516853933,0,0.5
2015-09-02 09:05:00,0.606741573034,0,0.5
2015-09-02 09:10:00,0.483146067416,0,0.5
2015-09-02 09:20:00,0.730337078652,0,0.5
2015-09-02 09:30:00,0.595505617978,0,0.5
2015-09-02 09:35:00,0.707865168539,0,0.5
2015-09-02 09:40:00,0.606741573034,0,0.5
2015-09-02 09:50:00,0.52808988764,0,0.5
2015-09-02 09:55:00,0.775280898876,0,0.5
2015-09-02 10:00:00,0.775280898876,0,0.5
2015-09-02 10:10:00,0.685393258427,0,0.5
2015-09-02 10:15:00,0.775280898876,0,0.5
2015-09-02 10:20:00,0.61797752809,0,0.5
2015-09-02 10:25:00,0.640449438202,0,0.5
2015-09-02 10:30:00,0.52808988764,0,0.5
2015-09-02 10:35:00,0.786516853933,0,0.5
2015-09-02 10:40:00,0.76404494382,0,0.5
2015-09-02 10:45:00,0.85393258427,0,0.5
2015-09-02 10:50:00,0.662921348315,0,0.5
2015-09-02 11:00:00,0.775280898876,0,0.5
2015-09-02 11:15:00,0.820224719101,0,0.5
2015-09-02 11:20:00,0.584269662921,0,0.5
2015-09-02 11:25:00,0.820224719101,0,0.5
2015-09-02 11:30:00,0.584269662921,0,0.5
2015-09-02 11:35:00,0.629213483146,0,0.5
2015-09-02 12:00:00,0.741573033708,0,0.5
2015-09-02 12:05:00,0.651685393258,0,0.5
2015-09-02 12:10:00,0.775280898876,0,0.5
2015-09-02 12:15:00,0.61797752809,0,0.5
2015-09-02 12:25:00,0.752808988764,0,0.5
2015-09-02 12:35:00,0.707865168539,0,0.5
2015-09-02 12:40:00,0.640449438202,0,0.5
2015-09-02 12:45:00,0.808988764045,0,0.5
2015-09-02 12:50:00,0.696629213483,0,0.5
2015-09-02 12:55:00,0.696629213483,0,0.5
2015-09-02 13:05:00,0.696629213483,0,0.5
2015-09-02 13:10:00,0.719101123596,0,0.5
2015-09-02 13:15:00,0.61797752809,0,0.5
2015-09-02 13:20:00,0.662921348315,0,0.5
2015-09-02 13:25:00,0.584269662921,0,0.5
2015-09-02 13:30:00,0.85393258427,0,0.5
2015-09-02 13:35:00,0.61797752809,0,0.5
2015-09-02 13:40:00,0.516853932584,0,0.5
2015-09-02 13:45:00,0.775280898876,0,0.5
2015-09-02 13:50:00,0.606741573034,0,0.5
2015-09-02 13:55:00,0.752808988764,0,0.5
2015-09-02 14:05:00,0.685393258427,0,0.5
2015-09-02 14:15:00,0.786516853933,0,0.5
2015-09-02 14:20:00,0.662921348315,0,0.5
2015-09-02 14:25:00,0.696629213483,0,0.5
2015-09-02 14:30:00,0.820224719101,0,0.5
2015-09-02 14:35:00,0.573033707865,0,0.5
2015-09-02 14:50:00,0.786516853933,0,0.5
2015-09-02 14:55:00,0.865168539326,0,0.5
2015-09-02 15:05:00,0.685393258427,0,0.5
2015-09-02 15:10:00,0.730337078652,0,0.5
2015-09-02 15:15:00,0.651685393258,0,0.5
2015-09-02 15:20:00,0.651685393258,0,0.5
2015-09-02 15:25:00,0.561797752809,0,0.5
2015-09-02 15:30:00,0.887640449438,0,0.5
2015-09-02 15:35:00,0.730337078652,0,0.5
2015-09-02 15:40:00,0.876404494382,0,0.5
2015-09-02 15:45:00,0.696629213483,0,0.5
2015-09-02 15:50:00,0.606741573034,0,0.5
2015-09-02 16:05:00,0.719101123596,0,0.5
2015-09-02 16:15:00,0.820224719101,0,0.5
2015-09-02 16:20:00,0.786516853933,0,0.5
2015-09-02 16:25:00,0.797752808989,0,0.5
2015-09-02 16:30:00,0.640449438202,0,0.5
2015-09-02 16:50:00,0.707865168539,0,0.5
2015-09-02 16:55:00,0.674157303371,0,0.5
2015-09-02 17:00:00,0.719101123596,0,0.5
2015-09-02 17:10:00,0.651685393258,0,0.5
2015-09-02 17:20:00,0.674157303371,0,0.5
2015-09-02 17:35:00,0.595505617978,0,0.5
2015-09-02 17:45:00,0.674157303371,0,0.5
2015-09-02 18:05:00,0.696629213483,0,0.5
2015-09-02 18:10:00,0.662921348315,0,0.5
2015-09-02 18:15:00,0.539325842697,0,0.5
2015-09-02 18:20:00,0.61797752809,0,0.5
2015-09-02 18:30:00,0.831460674157,0,0.5
2015-09-02 18:35:00,0.629213483146,0,0.5
2015-09-02 18:45:00,0.820224719101,0,0.5
2015-09-02 18:50:00,0.640449438202,0,0.5
2015-09-02 19:00:00,0.719101123596,0,0.5
2015-09-02 19:05:00,0.76404494382,0,0.5
2015-09-02 19:10:00,0.876404494382,0,0.5
2015-09-02 19:15:00,0.685393258427,0,0.5
2015-09-02 19:21:00,0.651685393258,0,0.5
2015-09-02 19:26:00,0.685393258427,0,0.5
2015-09-02 19:46:00,0.752808988764,0,0.5
2015-09-02 19:56:00,0.831460674157,0,0.5
2015-09-02 20:11:00,0.797752808989,0,0.5
2015-09-02 20:46:00,0.685393258427,0,0.5
2015-09-02 20:56:00,0.730337078652,0,0.5
2015-09-02 21:00:00,0.820224719101,0,0.5
2015-09-02 21:16:00,0.719101123596,0,0.5
2015-09-02 21:21:00,0.685393258427,0,0.5
2015-09-02 21:31:00,0.584269662921,0,0.5
2015-09-02 21:36:00,0.797752808989,0,0.5
2015-09-02 21:46:00,0.584269662921,0,0.5
2015-09-02 21:51:00,0.584269662921,0,0.5
2015-09-02 22:11:00,0.696629213483,0,0.5
2015-09-02 22:21:00,0.606741573034,0,0.5
2015-09-02 22:31:00,0.730337078652,0,0.5
2015-09-02 22:36:00,0.775280898876,0,0.5
2015-09-02 22:41:00,0.61797752809,0,0.5
2015-09-02 22:51:00,0.606741573034,0,0.5
2015-09-02 23:51:00,0.696629213483,0,0.5
2015-09-03 00:01:00,0.595505617978,0,0.5
2015-09-03 00:11:00,0.47191011236,0,0.5
2015-09-03 00:21:00,0.516853932584,0,0.5
2015-09-03 00:36:00,0.573033707865,0,0.5
2015-09-03 00:41:00,0.651685393258,0,0.5
2015-09-03 00:51:00,0.808988764045,0,0.5
2015-09-03 01:21:00,0.539325842697,0,0.5
2015-09-03 01:26:00,0.595505617978,0,0.5
2015-09-03 01:51:00,0.662921348315,0,0.5
2015-09-03 01:56:00,0.662921348315,0,0.5
2015-09-03 02:01:00,0.629213483146,0,0.5
2015-09-03 02:11:00,0.674157303371,0,0.5
2015-09-03 02:16:00,0.662921348315,0,0.5
2015-09-03 02:21:00,0.707865168539,0,0.5
2015-09-03 03:11:00,0.595505617978,0,0.5
2015-09-03 03:21:00,0.494382022472,0,0.5
2015-09-03 03:26:00,0.494382022472,0,0.5
2015-09-03 03:46:00,0.595505617978,0,0.5
2015-09-03 03:51:00,0.573033707865,0,0.5
2015-09-03 04:06:00,0.52808988764,0,0.5
2015-09-03 04:11:00,0.606741573034,0,0.5
2015-09-03 04:16:00,0.719101123596,0,0.5
2015-09-03 04:36:00,0.786516853933,0,0.5
2015-09-03 04:56:00,0.539325842697,0,0.5
2015-09-03 05:01:00,0.662921348315,0,0.5
2015-09-03 05:06:00,0.808988764045,0,0.5
2015-09-03 05:11:00,0.752808988764,0,0.5
2015-09-03 05:21:00,0.573033707865,0,0.5
2015-09-03 05:26:00,0.786516853933,0,0.5
2015-09-03 05:31:00,0.76404494382,0,0.5
2015-09-03 05:36:00,0.820224719101,0,0.5
2015-09-03 05:41:00,0.797752808989,0,0.5
2015-09-03 05:46:00,0.820224719101,0,0.5
2015-09-03 05:51:00,0.707865168539,0,0.5
2015-09-03 05:56:00,0.696629213483,0,0.5
2015-09-03 06:01:00,0.775280898876,0,0.5
2015-09-03 06:06:00,0.741573033708,0,0.5
2015-09-03 06:11:00,0.76404494382,0,0.5
2015-09-03 06:16:00,0.674157303371,0,0.5
2015-09-03 06:21:00,0.865168539326,0,0.5
2015-09-03 06:26:00,0.831460674157,0,0.5
2015-09-03 06:36:00,0.741573033708,0,0.5
2015-09-03 06:41:00,0.820224719101,0,0.5
2015-09-03 06:46:00,0.741573033708,0,0.5
2015-09-03 06:51:00,0.775280898876,0,0.5
2015-09-03 06:56:00,0.52808988764,0,0.863990201072
2015-09-03 07:01:00,0.831460674157,0,0.898249877444
2015-09-03 07:06:00,0.775280898876,0,0.902045411774
2015-09-03 07:11:00,0.741573033708,0,0.92266216912
2015-09-03 07:16:00,0.696629213483,0,0.863990201072
2015-09-03 07:21:00,0.674157303371,0,0.786777780838
2015-09-03 07:26:00,0.797752808989,0,0.816883605152
2015-09-03 07:31:00,0.786516853933,0,0.799151793532
2015-09-03 07:36:00,0.775280898876,0,0.816883605152
2015-09-03 07:41:00,0.685393258427,0,0.76740686291
2015-09-03 07:46:00,0.606741573034,0,0.811084571724
2015-09-03 07:51:00,0.831460674157,0,0.811084571724
2015-09-03 07:56:00,0.629213483146,0,0.68912241075
2015-09-03 08:01:00,0.76404494382,0,0.70428712961
2015-09-03 08:11:00,0.808988764045,0,0.774516807513
2015-09-03 08:16:00,0.651685393258,0,0.761271359963
2015-09-03 08:21:00,0.651685393258,0,0.665766968011
2015-09-03 08:26:00,0.61797752809,0,0.54090084996
2015-09-03 08:31:00,0.573033707865,0,0.613310304991
2015-09-03 08:36:00,0.674157303371,0,0.621590513752
2015-09-03 08:41:00,0.786516853933,0,0.514994046781
2015-09-03 08:46:00,0.752808988764,0,0.54551202005
2015-09-03 08:56:00,0.831460674157,0,0.60885289722
2015-09-03 09:01:00,0.640449438202,0,0.514994046781
2015-09-03 09:06:00,0.696629213483,0,0.571204061961
2015-09-03 09:16:00,0.752808988764,0,0.506338915958
2015-09-03 09:21:00,0.573033707865,0,0.554102674236
2015-09-03 09:26:00,0.662921348315,0,0.519628079423
2015-09-03 09:31:00,0.831460674157,0,0.673629483905
2015-09-03 09:36:00,0.876404494382,0,0.799719130169
2015-09-03 09:41:00,0.707865168539,0,0.75449231088
2015-09-03 09:56:00,0.561797752809,0,0.625416257058
2015-09-03 10:01:00,0.640449438202,0,0.519628079423
2015-09-03 10:06:00,0.595505617978,0,0.554102674236
2015-09-03 10:11:00,0.707865168539,0,0.54551202005
2015-09-03 10:16:00,0.775280898876,0,0.528270697932
2015-09-03 10:26:00,0.449438202247,0,0.621590513752
2015-09-03 10:31:00,0.595505617978,0,0.669988352928
2015-09-03 10:36:00,0.797752808989,0,0.693217472222
2015-09-03 10:41:00,0.674157303371,0,0.81478066885
2015-09-03 10:46:00,0.696629213483,0,0.820521772814
2015-09-03 10:51:00,0.85393258427,0,0.637981075827
2015-09-03 11:01:00,0.662921348315,0,0.621590513752
2015-09-03 11:06:00,0.696629213483,0,0.54551202005
2015-09-03 11:16:00,0.719101123596,0,0.53690002378
2015-09-03 11:21:00,0.606741573034,0,0.662091373115
2015-09-03 11:26:00,0.76404494382,0,0.575156189432
2015-09-03 11:36:00,0.741573033708,0,0.681415594292
2015-09-03 11:46:00,0.831460674157,0,0.70428712961
2015-09-03 12:01:00,0.595505617978,0,0.649824773389
2015-09-03 12:06:00,0.707865168539,0,0.657831035686
2015-09-03 12:11:00,0.629213483146,0,0.510976223919
2015-09-03 12:16:00,0.651685393258,0,0.519628079423
2015-09-03 12:21:00,0.629213483146,0,0.571204061961
2015-09-03 12:31:00,0.808988764045,0,0.502319200124
2015-09-03 12:41:00,0.707865168539,0,0.575156189432
2015-09-03 12:46:00,0.629213483146,0,0.528270697932
2015-09-03 12:51:00,0.651685393258,0,0.596597785152
2015-09-03 12:56:00,0.865168539326,0,0.571204061961
2015-09-03 13:01:00,0.707865168539,0,0.514994046781
2015-09-03 13:06:00,0.550561797753,0,0.604978187844
2015-09-03 13:11:00,0.573033707865,0,0.646084557977
2015-09-03 13:21:00,0.808988764045,0,0.528270697932
2015-09-03 13:26:00,0.797752808989,0,0.600494457921
2015-09-03 13:31:00,0.808988764045,0,0.600494457921
2015-09-03 13:41:00,0.640449438202,0,0.549503434717
2015-09-03 13:46:00,0.719101123596,0,0.617161360368
2015-09-03 14:01:00,0.685393258427,0,0.641751361457
2015-09-03 14:06:00,0.47191011236,0,0.654122397968
2015-09-03 14:11:00,0.707865168539,0,0.654122397968
2015-09-03 14:16:00,0.696629213483,0,0.54551202005
2015-09-03 14:21:00,0.85393258427,0,0.665766968011
2015-09-03 14:26:00,0.85393258427,0,0.696747148575
2015-09-03 14:31:00,0.775280898876,0,0.681415594292
2015-09-03 14:41:00,0.921348314607,0,0.75449231088
2015-09-03 14:46:00,0.775280898876,0,0.828724102058
2015-09-03 14:56:00,0.696629213483,0,0.817460227352
2015-09-03 15:01:00,0.674157303371,0,0.811658688137
2015-09-03 15:06:00,0.752808988764,0,0.923153782769
2015-09-03 15:11:00,0.730337078652,0,0.929221348313
2015-09-03 15:16:00,0.573033707865,0,0.890890780695
2015-09-03 15:21:00,0.595505617978,0,0.767946695051
2015-09-03 15:26:00,0.584269662921,0,0.58364235135
2015-09-03 15:31:00,0.831460674157,0,0.625416257058
2015-09-03 15:36:00,0.595505617978,0,0.621590513752
2015-09-03 15:41:00,0.707865168539,0,0.669988352928
2015-09-03 15:46:00,0.775280898876,0,0.613310304991
2015-09-03 15:51:00,0.707865168539,0,0.588172786357
2015-09-03 15:56:00,0.797752808989,0,0.554102674236
2015-09-03 16:06:00,0.797752808989,0,0.502319200124
2015-09-03 16:21:00,0.662921348315,0,0.566635052066
2015-09-03 16:31:00,0.584269662921,0,0.558082824307
2015-09-03 16:36:00,0.696629213483,0,0.641751361457
2015-09-03 16:41:00,0.573033707865,0,0.554102674236
2015-09-03 16:46:00,0.674157303371,0,0.506338915958
2015-09-03 16:56:00,0.752808988764,0,0.54090084996
2015-09-03 17:01:00,0.685393258427,0,0.528270697932
2015-09-03 17:06:00,0.865168539326,0,0.592089701586
2015-09-03 17:11:00,0.719101123596,0,0.532279069298
2015-09-03 17:16:00,0.76404494382,0,0.506338915958
2015-09-03 17:21:00,0.741573033708,0,0.566635052066
2015-09-03 17:26:00,0.685393258427,0,0.641751361457
2015-09-03 17:36:00,0.797752808989,0,0.711739784851
2015-09-03 17:41:00,0.662921348315,0,0.767946695051
2015-09-03 17:46:00,0.76404494382,0,0.817460227352
2015-09-03 17:51:00,0.887640449438,0,0.878226961143
2015-09-03 17:56:00,0.808988764045,0,0.919975427498
2015-09-03 18:01:00,0.685393258427,0,0.85489298561
2015-09-03 18:11:00,0.730337078652,0,0.859785380614
2015-09-03 18:16:00,0.696629213483,0,0.828724102058
2015-09-03 18:21:00,0.651685393258,0,0.780980310817
2015-09-03 18:31:00,0.719101123596,0,0.799719130169
2015-09-03 18:36:00,0.752808988764,0,0.791365329553
2015-09-03 18:41:00,0.561797752809,0,0.715513569492
2015-09-03 18:51:00,0.719101123596,0,0.678025961031
2015-09-03 19:06:00,0.730337078652,0,0.534409521397
2015-09-03 19:11:00,0.651685393258,0,0.61388821711
2015-09-03 19:21:00,0.797752808989,0,0.508385132258
2015-09-03 19:26:00,0.662921348315,0,0.572243381556
2015-09-03 20:02:00,0.752808988764,0,0.519087972658
2015-09-03 20:12:00,0.606741573034,0,0.561685433119
2015-09-03 20:17:00,0.786516853933,0,0.502323748837
2015-09-03 20:22:00,0.685393258427,0,0.561685433119
2015-09-03 20:27:00,0.775280898876,0,0.63863281475
2015-09-03 20:57:00,0.876404494382,0,0.767498465449
2015-09-03 21:02:00,0.685393258427,0,0.733441320778
2015-09-03 21:32:00,0.651685393258,0,0.733441320778
2015-09-03 21:42:00,0.640449438202,0,0.597711377182
2015-09-03 22:02:00,0.797752808989,0,0.715513569492
2015-09-03 22:22:00,0.752808988764,0,0.715513569492
2015-09-03 22:27:00,0.707865168539,0,0.791365329553
2015-09-03 23:22:00,0.505617977528,0,0.555689216851
2015-09-03 23:27:00,0.752808988764,0,0.618337445245
2015-09-03 23:32:00,0.584269662921,0,0.561685433119
2015-09-03 23:42:00,0.842696629213,0,0.593197559477
2015-09-03 23:57:00,0.741573033708,0,0.540444753397
2015-09-04 00:02:00,0.674157303371,0,0.519087972658
2015-09-04 00:07:00,0.47191011236,0,0.673838069323
2015-09-04 00:22:00,0.584269662921,0,0.831619997799
2015-09-04 00:27:00,0.651685393258,0,0.88535496348
2015-09-04 00:42:00,0.606741573034,0,0.925601323292
2015-09-04 01:07:00,0.719101123596,0,0.824781493393
2015-09-04 01:27:00,0.76404494382,0,0.817769418611
2015-09-04 02:27:00,0.584269662921,0,0.817769418611
2015-09-04 02:52:00,0.573033707865,0,0.939569711612
2015-09-04 02:57:00,0.584269662921,0,0.973010076859
2015-09-04 03:12:00,0.595505617978,0,0.982781259607
2015-09-04 03:27:00,0.685393258427,0,0.945737810407
2015-09-04 04:02:00,0.685393258427,0,0.913599424885
2015-09-04 04:22:00,0.808988764045,0,0.838284424126
2015-09-04 04:37:00,0.662921348315,0,0.80322792429
2015-09-04 04:52:00,0.842696629213,0,0.711548872989
2015-09-04 05:12:00,0.629213483146,0,0.810584547275
2015-09-04 05:17:00,0.696629213483,0,0.729600364199
2015-09-04 05:22:00,0.640449438202,0,0.673838069323
2015-09-04 05:32:00,0.662921348315,0,0.603579353487
2015-09-04 05:37:00,0.752808988764,0,0.545065535023
2015-09-04 05:42:00,0.752808988764,0,0.60806237506
2015-09-04 05:47:00,0.719101123596,0,0.63863281475
2015-09-04 05:52:00,0.741573033708,0,0.576809545374
2015-09-04 05:57:00,0.719101123596,0,0.628529797452
2015-09-04 06:07:00,0.662921348315,0,0.540444753397
2015-09-04 06:12:00,0.707865168539,0,0.534409521397
2015-09-04 06:17:00,0.696629213483,0,0.534409521397
2015-09-04 06:22:00,0.696629213483,0,0.587291401862
2015-09-04 06:27:00,0.730337078652,0,0.648640066347
2015-09-04 06:32:00,0.707865168539,0,0.60806237506
2015-09-04 06:37:00,0.719101123596,0,0.576809545374
2015-09-04 06:42:00,0.719101123596,0,0.576809545374
2015-09-04 06:47:00,0.707865168539,0,0.545065535023
2015-09-04 06:52:00,0.640449438202,0,0.52977707045
2015-09-04 06:57:00,0.584269662921,0,0.603579353487
2015-09-04 07:02:00,0.76404494382,0,0.551083395454
2015-09-04 07:07:00,0.685393258427,0,0.561685433119
2015-09-04 07:12:00,0.741573033708,0,0.519087972658
2015-09-04 07:22:00,0.820224719101,0,0.56627303555
2015-09-04 07:27:00,0.651685393258,0,0.513030955662
2015-09-04 07:32:00,0.674157303371,0,0.52977707045
2015-09-04 07:37:00,0.842696629213,0,0.587291401862
2015-09-04 07:47:00,0.674157303371,0,0.555689216851
2015-09-04 07:52:00,0.786516853933,0,0.687589974724
2015-09-04 07:57:00,0.786516853933,0,0.834533507954
2015-09-04 08:02:00,0.696629213483,0,0.791365329553
2015-09-04 08:07:00,0.898876404494,0,0.906785704689
2015-09-04 08:12:00,0.651685393258,0,0.865736302236
2015-09-04 08:17:00,0.573033707865,0,0.697029260886
2015-09-04 08:22:00,0.741573033708,0,0.767498465449
2015-09-04 08:27:00,0.61797752809,0,0.724549197253
2015-09-04 08:32:00,0.662921348315,0,0.56627303555
2015-09-04 08:37:00,0.786516853933,0,0.668342552061
2015-09-04 08:52:00,0.674157303371,0,0.56627303555
2015-09-04 08:57:00,0.741573033708,0,0.523728776873
2015-09-04 09:12:00,0.685393258427,0,0.513030955662
2015-09-04 09:17:00,0.707865168539,0,0.664104567217
2015-09-04 09:32:00,0.595505617978,0,0.711548872989
2015-09-04 09:42:00,0.685393258427,0,0.61388821711
2015-09-04 09:47:00,0.640449438202,0,0.702315033664
2015-09-04 09:52:00,0.719101123596,0,0.61388821711
2015-09-04 09:57:00,0.52808988764,0,0.729600364199
2015-09-04 10:12:00,0.786516853933,0,0.729600364199
2015-09-04 10:17:00,0.685393258427,0,0.720645454813
2015-09-04 10:22:00,0.741573033708,0,0.720645454813
2015-09-04 10:27:00,0.775280898876,0,0.644309462966
2015-09-04 10:32:00,0.865168539326,0,0.502323748837
2015-09-04 10:37:00,0.685393258427,0,0.587291401862
2015-09-04 10:42:00,0.696629213483,0,0.597711377182
2015-09-04 10:47:00,0.797752808989,0,0.733441320778
2015-09-04 10:57:00,0.640449438202,0,0.668342552061
2015-09-04 11:02:00,0.674157303371,0,0.783574693274
2015-09-04 11:07:00,0.786516853933,0,0.783574693274
2015-09-04 11:17:00,0.707865168539,0,0.798988163697
2015-09-04 11:22:00,0.696629213483,0,0.767498465449
2015-09-04 11:27:00,0.685393258427,0,0.721586174714
2015-09-04 11:32:00,0.887640449438,0,0.741175289722
2015-09-04 11:37:00,0.752808988764,0,0.795374354794
2015-09-04 11:42:00,0.52808988764,0,0.647884246288
2015-09-04 11:47:00,0.719101123596,0,0.568151205111
2015-09-04 11:52:00,0.719101123596,0,0.647884246288
2015-09-04 11:57:00,0.685393258427,0,0.658847985471
2015-09-04 12:12:00,0.752808988764,0,0.625592262339
2015-09-04 12:27:00,0.651685393258,0,0.568151205111
2015-09-04 12:32:00,0.76404494382,0,0.636796178268
2015-09-04 12:37:00,0.595505617978,0,0.544689881761
2015-09-04 12:42:00,0.898876404494,0,0.556445276935
2015-09-04 12:52:00,0.719101123596,0,0.52107160702
2015-09-04 12:57:00,0.808988764045,0,0.786840222619
2015-09-04 13:02:00,0.76404494382,0,0.819728625001
2015-09-04 13:12:00,0.730337078652,0,0.827424849124
2015-09-04 13:17:00,0.651685393258,0,0.803701838454
2015-09-04 13:27:00,0.730337078652,0,0.786840222619
2015-09-04 13:37:00,0.820224719101,0,0.892716098188
2015-09-04 13:47:00,0.730337078652,0,0.875336024744
2015-09-04 13:52:00,0.808988764045,0,0.95695616661
2015-09-04 13:57:00,0.629213483146,0,0.842178305794
2015-09-04 14:02:00,0.797752808989,0,0.887128209565
2015-09-04 14:07:00,0.775280898876,0,0.869127611688
2015-09-04 14:12:00,0.696629213483,0,0.827424849124
2015-09-04 14:17:00,0.797752808989,0,0.869127611688
2015-09-04 14:22:00,0.719101123596,0,0.903287859912
2015-09-04 14:27:00,0.707865168539,0,0.892716098188
2015-09-04 14:32:00,0.595505617978,0,0.741175289722
2015-09-04 14:37:00,0.707865168539,0,0.721586174714
2015-09-04 14:42:00,0.85393258427,0,0.760025927952
2015-09-04 14:47:00,0.651685393258,0,0.778102027974
2015-09-04 14:52:00,0.640449438202,0,0.636796178268
2015-09-04 15:02:00,0.696629213483,0,0.556445276935
2015-09-04 15:17:00,0.696629213483,0,0.556445276935
2015-09-04 15:22:00,0.674157303371,0,0.573310427463
2015-09-04 15:32:00,0.797752808989,0,0.509229417388
2015-09-04 15:42:00,0.752808988764,0,0.556445276935
2015-09-04 15:47:00,0.808988764045,0,0.760025927952
2015-09-04 15:52:00,0.786516853933,0,0.819728625001
2015-09-04 16:02:00,0.820224719101,0,0.795374354794
2015-09-04 16:12:00,0.730337078652,0,0.8492348585
2015-09-04 16:17:00,0.85393258427,0,0.94493182212
2015-09-04 16:27:00,0.674157303371,0,0.937996178025
2015-09-04 16:32:00,0.730337078652,0,0.948161926091
2015-09-04 16:42:00,0.707865168539,0,0.95695616661
2015-09-04 16:47:00,0.606741573034,0,0.887128209565
2015-09-04 16:52:00,0.730337078652,0,0.875336024744
2015-09-04 16:57:00,0.629213483146,0,0.750695331479
2015-09-04 17:02:00,0.797752808989,0,0.760025927952
2015-09-04 17:07:00,0.865168539326,0,0.795374354794
2015-09-04 17:12:00,0.842696629213,0,0.869127611688
2015-09-04 17:17:00,0.707865168539,0,0.769162783016
2015-09-04 17:22:00,0.797752808989,0,0.856078140424
2015-09-04 17:27:00,0.797752808989,0,0.892716098188
2015-09-04 17:32:00,0.831460674157,0,0.941544738232
2015-09-04 17:37:00,0.719101123596,0,0.968905018068
2015-09-04 17:42:00,0.865168539326,0,0.986838627001
2015-09-04 17:47:00,0.85393258427,0,0.997565282527
2015-09-04 18:02:00,0.775280898876,0,0.997075544282