timestamp,value,is_anomaly,anomaly_score
2015-07-10 14:24:00,0.109900990099,0,0.5
2015-07-10 14:38:00,0.142772277228,0,0.5
2015-07-10 14:48:00,0.150693069307,0,0.5
2015-07-10 15:03:00,0.178415841584,0,0.5
2015-07-10 15:22:00,0.203168316832,0,0.5
2015-07-10 15:32:00,0.209108910891,0,0.5
2015-07-10 15:42:00,0.186930693069,0,0.5
2015-07-10 15:52:00,0.197227722772,0,0.5
2015-07-10 16:02:00,0.195445544554,0,0.5
2015-07-10 16:12:00,0.176633663366,0,0.5
2015-07-10 16:22:00,0.184158415842,0,0.5
2015-07-10 16:32:00,0.193861386139,0,0.5
2015-07-10 16:42:00,0.200198019802,0,0.5
2015-07-10 16:52:00,0.171683168317,0,0.5
2015-07-10 17:02:00,0.170495049505,0,0.5
2015-07-10 17:12:00,0.158415841584,0,0.5
2015-07-10 17:22:00,0.173267326733,0,0.5
2015-07-10 17:32:00,0.181584158416,0,0.5
2015-07-10 17:42:00,0.162376237624,0,0.5
2015-07-10 18:02:00,0.139207920792,0,0.5
2015-07-10 18:12:00,0.121782178218,0,0.5
2015-07-10 18:22:00,0.123366336634,0,0.5
2015-07-10 18:32:00,0.116237623762,0,0.5
2015-07-10 18:42:00,0.0992079207921,0,0.5
2015-07-10 18:52:00,0.102376237624,0,0.5
2015-07-10 19:32:00,0.0178217821782,0,0.5
2015-07-10 19:42:00,0.0150495049505,0,0.5
2015-07-10 20:02:00,0.0150495049505,0,0.5
2015-07-10 20:12:00,0.0154455445545,0,0.5
2015-07-10 20:22:00,0.0166336633663,0,0.5
2015-07-10 20:42:00,0.00950495049505,0,0.5
2015-07-10 21:32:00,0.0182178217822,0,0.5
2015-07-11 10:10:00,0.0332673267327,0,0.5
2015-07-11 10:30:00,0.0419801980198,0,0.5
2015-07-11 11:00:00,0.0639603960396,0,0.5
2015-07-11 11:10:00,0.0651485148515,0,0.5
2015-07-11 11:20:00,0.050297029703,0,0.5
2015-07-11 11:30:00,0.0584158415842,0,0.5
2015-07-11 11:40:00,0.0691089108911,0,0.5
2015-07-11 11:50:00,0.0744554455446,0,0.5
2015-07-11 12:00:00,0.0768316831683,0,0.5
2015-07-11 12:10:00,0.0825742574257,0,0.5
2015-07-11 12:20:00,0.089504950495,0,0.5
2015-07-11 12:28:00,0.0809900990099,0,0.5
2015-07-11 12:38:00,0.0869306930693,0,0.5
2015-07-11 12:43:00,0.0837623762376,0,0.5
2015-07-11 12:53:00,0.0805940594059,0,0.5
2015-07-11 12:57:00,0.0823762376238,0,0.5
2015-07-11 13:07:00,0.0851485148515,0,0.5
2015-07-11 13:09:00,0.0819801980198,0,0.5
2015-07-11 13:19:00,0.0714851485149,0,0.5
2015-07-11 13:29:00,0.0782178217822,0,0.5
2015-07-11 13:39:00,0.0748514851485,0,0.5
2015-07-11 14:41:00,0.0348514851485,0,0.5
2015-07-11 15:01:00,0.0346534653465,0,0.5
2015-07-11 16:53:00,0.0188118811881,0,0.5
2015-07-11 17:02:00,0.019603960396,0,0.5
2015-07-11 17:13:00,0.0221782178218,0,0.5
2015-07-11 17:23:00,0.0219801980198,0,0.5
2015-07-11 17:33:00,0.0233663366337,0,0.5
2015-07-11 18:23:00,0.00851485148515,0,0.5
2015-07-12 10:56:00,0.0166336633663,0,0.5
2015-07-12 12:36:00,0.0281188118812,0,0.5
2015-07-12 12:46:00,0.030099009901,0,0.5
2015-07-12 12:56:00,0.029900990099,0,0.5
2015-07-12 13:36:00,0.0332673267327,0,0.5
2015-07-12 15:26:00,0.0364356435644,0,0.5
2015-07-12 19:13:00,0.0217821782178,0,0.5
2015-07-13 09:15:00,0.0265346534653,0,0.5
2015-07-13 09:45:00,0.0281188118812,0,0.5
2015-07-13 12:07:00,0.0255445544554,0,0.5
2015-07-13 12:37:00,0.0265346534653,0,0.5
2015-07-13 12:47:00,0.0271287128713,0,0.5
2015-07-13 14:37:00,0.0324752475248,0,0.5
2015-07-13 15:27:00,0.0429702970297,0,0.5
2015-07-13 15:57:00,0.0390099009901,0,0.5
2015-07-13 16:07:00,0.0463366336634,0,0.5
2015-07-13 16:27:00,0.0453465346535,0,0.5
2015-07-13 16:47:00,0.0564356435644,0,0.5
2015-07-13 17:07:00,0.0429702970297,0,0.5
2015-07-13 17:17:00,0.039603960396,0,0.5
2015-07-13 17:57:00,0.0421782178218,0,0.5
2015-07-13 18:06:00,0.0251485148515,0,0.5
2015-07-13 18:46:00,0.0237623762376,0,0.5
2015-07-13 18:56:00,0.0245544554455,0,0.5
2015-07-14 09:10:00,0.0342574257426,0,0.5
2015-07-14 09:40:00,0.0483168316832,0,0.5
2015-07-14 09:50:00,0.0413861386139,0,0.5
2015-07-14 10:10:00,0.0409900990099,0,0.5
2015-07-14 10:20:00,0.0384158415842,0,0.5
2015-07-14 13:11:00,0.0265346534653,0,0.5
2015-07-14 14:01:00,0.0186138613861,0,0.5
2015-07-14 14:41:00,0.030297029703,0,0.5
2015-07-14 14:51:00,0.0338613861386,0,0.5
2015-07-14 15:01:00,0.0423762376238,0,0.5
2015-07-14 15:11:00,0.0540594059406,0,0.5
2015-07-14 15:21:00,0.050099009901,0,0.5
2015-07-14 15:51:00,0.0554455445545,0,0.5
2015-07-14 16:01:00,0.049702970297,0,0.5
2015-07-14 16:09:00,0.0518811881188,0,0.5
2015-07-14 16:19:00,0.0473267326733,0,0.5
2015-07-14 16:25:00,0.0445544554455,0,0.5
2015-07-14 17:05:00,0.0594059405941,0,0.5
2015-07-14 17:07:00,0.0613861386139,0,0.5
2015-07-14 17:27:00,0.0508910891089,0,0.5
2015-07-14 17:57:00,0.0392079207921,0,0.5
2015-07-14 18:17:00,0.0374257425743,0,0.5
2015-07-14 18:47:00,0.0423762376238,0,0.5
2015-07-14 18:57:00,0.0477227722772,0,0.5
2015-07-14 19:17:00,0.0364356435644,0,0.5
2015-07-15 09:37:00,0.0267326732673,0,0.5
2015-07-15 11:37:00,0.0221782178218,0,0.5
2015-07-15 12:54:00,0.0188118811881,0,0.5
2015-07-15 14:54:00,0.030099009901,0,0.5
2015-07-15 15:34:00,0.0334653465347,0,0.5
2015-07-15 16:14:00,0.030099009901,0,0.5
2015-07-15 16:54:00,0.0386138613861,0,0.5
2015-07-15 17:04:00,0.0368316831683,0,0.5
2015-07-15 17:24:00,0.0356435643564,0,0.5
2015-07-15 17:44:00,0.0405940594059,0,0.5
2015-07-15 18:04:00,0.0386138613861,0,0.5
2015-07-15 18:34:00,0.0417821782178,0,0.5
2015-07-15 18:44:00,0.0415841584158,0,0.5
2015-07-16 11:44:00,0.0287128712871,0,0.5
2015-07-16 14:19:00,0.0215841584158,0,0.5
2015-07-16 14:29:00,0.0227722772277,0,0.5
2015-07-16 14:59:00,0.0326732673267,0,0.5
2015-07-16 15:09:00,0.0441584158416,0,0.5
2015-07-16 15:19:00,0.0607920792079,0,0.5
2015-07-16 15:29:00,0.0655445544554,0,0.5
2015-07-16 15:39:00,0.0770297029703,0,0.5
2015-07-16 15:49:00,0.0776237623762,0,0.5
2015-07-16 15:50:00,0.0758415841584,0,0.5
2015-07-16 16:09:00,0.0673267326733,0,0.5
2015-07-16 16:29:00,0.0750495049505,0,0.5
2015-07-16 16:39:00,0.0665346534653,0,0.5
2015-07-16 16:49:00,0.070099009901,0,0.5
2015-07-16 16:59:00,0.100396039604,0,0.5
2015-07-16 17:09:00,0.0893069306931,0,0.5
2015-07-16 17:19:00,0.079603960396,0,0.5
2015-07-16 17:29:00,0.08,0,0.5
2015-07-16 17:39:00,0.0637623762376,0,0.5
2015-07-16 17:49:00,0.0708910891089,0,0.5
2015-07-16 17:59:00,0.0635643564356,0,0.5
2015-07-16 18:09:00,0.0552475247525,0,0.5
2015-07-16 18:19:00,0.0562376237624,0,0.5
2015-07-16 18:59:00,0.0427722772277,0,0.5
2015-07-16 19:19:00,0.0429702970297,0,0.5
2015-07-16 19:29:00,0.0378217821782,0,0.5
2015-07-16 19:49:00,0.0384158415842,0,0.5
2015-07-16 20:09:00,0.0372277227723,0,0.5
2015-07-17 18:11:00,0.232871287129,0,0.5
2015-07-17 18:21:00,0.212277227723,0,0.5
2015-07-17 18:31:00,0.230693069307,0,0.5
2015-07-17 18:45:00,0.262772277228,0,0.5
2015-07-17 18:55:00,0.230693069307,0,0.5
2015-07-17 19:05:00,0.164356435644,0,0.5
2015-07-17 19:15:00,0.128316831683,0,0.5
2015-07-17 19:25:00,0.0986138613861,0,0.5
2015-07-17 19:35:00,0.0524752475248,0,0.5
2015-07-17 19:45:00,0.0459405940594,0,0.5
2015-07-17 19:55:00,0.0352475247525,0,0.5
2015-07-17 20:05:00,0.0308910891089,0,0.5
2015-07-17 20:25:00,0.0152475247525,0,0.5
2015-07-17 20:55:00,0.0166336633663,0,0.5
2015-07-18 03:56:00,0.00950495049505,0,0.5
2015-07-18 04:56:00,0.0166336633663,0,0.5
2015-07-18 10:06:00,0.0241584158416,0,0.5
2015-07-18 10:16:00,0.0225742574257,0,0.5
2015-07-18 11:26:00,0.019801980198,0,0.5
2015-07-18 11:46:00,0.0215841584158,0,0.5
2015-07-18 11:56:00,0.0235643564356,0,0.5
2015-07-18 12:36:00,0.0469306930693,0,0.5
2015-07-18 12:46:00,0.0439603960396,0,0.5
2015-07-18 13:46:00,0.0594059405941,0,0.5
2015-07-18 14:36:00,0.0411881188119,0,0.5
2015-07-18 16:26:00,0.0154455445545,0,0.5
2015-07-18 16:56:00,0.0150495049505,0,0.5
2015-07-18 17:16:00,0.0138613861386,0,0.5
2015-07-18 18:56:00,0.0126732673267,0,0.5
2015-07-18 19:16:00,0.0164356435644,0,0.5
2015-07-19 10:53:00,0.0174257425743,0,0.5
2015-07-19 11:25:00,0.0172277227723,0,0.5
2015-07-19 12:35:00,0.0322772277228,0,0.5
2015-07-19 12:45:00,0.0336633663366,0,0.5
2015-07-19 13:05:00,0.0334653465347,0,0.5
2015-07-19 13:25:00,0.0344554455446,0,0.5
2015-07-19 13:45:00,0.0279207920792,0,0.5
2015-07-19 14:55:00,0.0326732673267,0,0.5
2015-07-19 15:45:00,0.0310891089109,0,0.5
2015-07-19 16:35:00,0.030099009901,0,0.5
2015-07-19 16:45:00,0.0281188118812,0,0.5
2015-07-19 16:55:00,0.0316831683168,0,0.5
2015-07-20 06:05:00,0.0168316831683,0,0.5
2015-07-20 06:15:00,0.0178217821782,0,0.5
2015-07-20 07:55:00,0.0247524752475,0,0.5
2015-07-20 09:55:00,0.0283168316832,0,0.5
2015-07-20 10:15:00,0.0285148514851,0,0.5
2015-07-20 10:55:00,0.0243564356436,0,0.5
2015-07-20 11:35:00,0.0247524752475,0,0.5
2015-07-20 11:51:00,0.0261386138614,0,0.5
2015-07-21 00:50:00,0.00277227722772,0,0.5
2015-07-21 01:00:00,0.00237623762376,0,0.5
2015-07-21 01:10:00,0.0170297029703,0,0.5
2015-07-21 01:20:00,0.0160396039604,0,0.5
2015-07-21 01:50:00,0.0158415841584,0,0.5
2015-07-21 03:00:00,0.0160396039604,0,0.5
2015-07-21 03:10:00,0.0186138613861,0,0.5
2015-07-21 03:30:00,0.0114851485149,0,0.5
2015-07-21 04:30:00,0.0029702970297,0,0.5
2015-07-21 04:40:00,0.00871287128713,0,0.5
2015-07-21 09:00:00,0.0372277227723,0,0.5
2015-07-21 09:10:00,0.0382178217822,0,0.5
2015-07-21 11:20:00,0.0219801980198,0,0.5
2015-07-21 13:20:00,0.0257425742574,0,0.5
2015-07-21 13:30:00,0.0407920792079,0,0.5
2015-07-21 13:40:00,0.0370297029703,0,0.5
2015-07-21 14:10:00,0.0435643564356,0,0.5
2015-07-21 14:20:00,0.0324752475248,0,0.5
2015-07-21 14:40:00,0.0334653465347,0,0.5
2015-07-21 14:50:00,0.0374257425743,0,0.5
2015-07-21 15:00:00,0.0362376237624,0,0.5
2015-07-21 15:30:00,0.0607920792079,0,0.5
2015-07-21 15:50:00,0.050297029703,0,0.5
2015-07-21 16:00:00,0.0477227722772,0,0.5
2015-07-21 16:20:00,0.0451485148515,0,0.5
2015-07-21 16:30:00,0.0580198019802,0,0.5
2015-07-21 16:40:00,0.0560396039604,0,0.5
2015-07-21 17:00:00,0.0611881188119,0,0.5
2015-07-21 17:10:00,0.0564356435644,0,0.5
2015-07-21 17:20:00,0.0467326732673,0,0.5
2015-07-21 17:40:00,0.0469306930693,0,0.5
2015-07-21 18:00:00,0.0481188118812,0,0.5
2015-07-21 18:10:00,0.04,0,0.5
2015-07-21 18:30:00,0.0413861386139,0,0.5
2015-07-21 19:00:00,0.0279207920792,0,0.5
2015-07-22 00:04:00,0.0154455445545,0,0.5
2015-07-22 00:14:00,0.0172277227723,0,0.5
2015-07-22 01:44:00,0.00930693069307,0,0.5
2015-07-22 02:24:00,0.0211881188119,0,0.5
2015-07-22 03:44:00,0.0170297029703,0,0.5
2015-07-22 03:54:00,0.0154455445545,0,0.5
2015-07-22 04:14:00,0.0152475247525,0,0.5
2015-07-22 04:24:00,0.00455445544554,0,0.5
2015-07-22 04:34:00,0.00376237623762,0,0.5
2015-07-22 04:44:00,0.0039603960396,0,0.5
2015-07-22 04:54:00,0.000594059405941,0,0.5
2015-07-22 05:04:00,0.000594059405941,0,0.5
2015-07-22 05:14:00,0.000594059405941,0,0.5
2015-07-22 09:04:00,0.0273267326733,0,0.5
2015-07-22 09:14:00,0.0259405940594,0,0.5
2015-07-22 14:43:00,0.030099009901,0,0.5
2015-07-22 14:53:00,0.0344554455446,0,0.5
2015-07-22 15:03:00,0.0425742574257,0,0.5
2015-07-22 15:43:00,0.0625742574257,0,0.5
2015-07-22 16:23:00,0.0552475247525,0,0.5
2015-07-22 16:33:00,0.050297029703,0,0.5
2015-07-22 16:53:00,0.0615841584158,0,0.5
2015-07-22 17:03:00,0.070495049505,0,0.5
2015-07-22 17:13:00,0.0637623762376,0,0.5
2015-07-22 17:23:00,0.0607920792079,0,0.5
2015-07-22 17:53:00,0.0712871287129,0,0.5
2015-07-22 18:03:00,0.0582178217822,0,0.5
2015-07-22 18:13:00,0.0510891089109,0,0.5
2015-07-22 18:23:00,0.0441584158416,0,0.5
2015-07-22 18:33:00,0.0459405940594,0,0.5
2015-07-22 19:03:00,0.0451485148515,0,0.5
2015-07-22 19:13:00,0.0370297029703,0,0.5
2015-07-22 19:23:00,0.0253465346535,0,0.5
2015-07-23 03:55:00,0.564158415842,0,0.5
2015-07-23 04:15:00,0.548910891089,0,0.5
2015-07-23 04:24:00,0.570693069307,0,0.5
2015-07-23 11:55:00,0.0225742574257,0,0.5
2015-07-23 12:05:00,0.0449504950495,0,0.5
2015-07-23 12:25:00,0.060396039604,0,0.5
2015-07-23 14:35:00,0.0489108910891,0,0.5
2015-07-23 14:45:00,0.0510891089109,0,0.5
2015-07-23 14:55:00,0.0526732673267,0,0.5
2015-07-23 15:15:00,0.0714851485149,0,0.5
2015-07-23 15:35:00,0.069900990099,0,0.5
2015-07-23 15:45:00,0.0655445544554,0,0.5
2015-07-23 15:55:00,0.0615841584158,0,0.5
2015-07-23 16:05:00,0.0419801980198,0,0.5
2015-07-23 16:15:00,0.0506930693069,0,0.5
2015-07-23 16:25:00,0.0473267326733,0,0.5
2015-07-23 16:55:00,0.0607920792079,0,0.5
2015-07-23 17:05:00,0.0659405940594,0,0.5
2015-07-23 17:15:00,0.0617821782178,0,0.5
2015-07-23 17:25:00,0.0613861386139,0,0.5
2015-07-23 17:45:00,0.0645544554455,0,0.5
2015-07-23 17:55:00,0.0609900990099,0,0.5
2015-07-23 18:15:00,0.0631683168317,0,0.5
2015-07-23 18:25:00,0.0588118811881,0,0.5
2015-07-23 18:35:00,0.0586138613861,0,0.5
2015-07-23 18:45:00,0.0514851485149,0,0.5
2015-07-23 18:55:00,0.0522772277228,0,0.5
2015-07-23 19:05:00,0.049900990099,0,0.5
2015-07-23 19:15:00,0.0453465346535,0,0.5
2015-07-23 19:25:00,0.0394059405941,0,0.5
2015-07-23 23:35:00,0.0190099009901,0,0.5
2015-07-24 09:29:00,0.0261386138614,0,0.5
2015-07-24 10:08:00,0.0267326732673,0,0.5
2015-07-24 10:49:00,0.0318811881188,0,0.5
2015-07-24 11:19:00,0.0312871287129,0,0.5
2015-07-24 11:39:00,0.0336633663366,0,0.5
2015-07-24 11:49:00,0.0334653465347,0,0.5
2015-07-24 11:59:00,0.0332673267327,0,0.5
2015-07-24 12:09:00,0.0384158415842,0,0.5
2015-07-24 12:19:00,0.0449504950495,0,0.5
2015-07-24 12:29:00,0.0493069306931,0,0.5
2015-07-24 12:39:00,0.0479207920792,0,0.5
2015-07-24 12:44:00,0.0506930693069,0,0.5
2015-07-24 16:59:00,0.0613861386139,0,0.5
2015-07-24 17:09:00,0.0550495049505,0,0.5
2015-07-24 17:29:00,0.0562376237624,0,0.5
2015-07-24 17:59:00,0.04,0,0.5
2015-07-24 18:29:00,0.0263366336634,0,0.5
2015-07-24 18:39:00,0.0330693069307,0,0.5
2015-07-24 18:49:00,0.0346534653465,0,0.5
2015-07-24 18:59:00,0.0380198019802,0,0.5
2015-07-24 19:09:00,0.0364356435644,0,0.5
2015-07-24 19:19:00,0.0293069306931,0,0.5
2015-07-24 19:39:00,0.0130693069307,0,0.5
2015-07-24 19:49:00,0.0211881188119,0,0.5
2015-07-24 19:59:00,0.0233663366337,0,0.5
2015-07-24 20:09:00,0.0176237623762,0,0.5
2015-07-24 20:19:00,0.0192079207921,0,0.5
2015-07-24 20:29:00,0.0231683168317,0,0.5
2015-07-24 20:39:00,0.0106930693069,0,0.5
2015-07-24 20:59:00,0.0162376237624,0,0.5
2015-07-24 21:29:00,0.0209900990099,0,0.5
2015-07-24 21:39:00,0.020396039604,0,0.5
2015-07-25 01:29:00,0.130891089109,0,0.5
2015-07-25 05:39:00,0.580594059406,0,0.5
2015-07-25 05:59:00,0.562178217822,0,0.5
2015-07-25 06:03:00,0.577227722772,0,0.5
2015-07-25 09:34:00,0.040396039604,0,0.5
2015-07-25 09:54:00,0.0459405940594,0,0.5
2015-07-25 10:04:00,0.049702970297,0,0.5
2015-07-25 10:14:00,0.0461386138614,0,0.5
2015-07-25 10:54:00,0.0477227722772,0,0.5
2015-07-25 11:04:00,0.0607920792079,0,0.5
2015-07-25 11:14:00,0.0625742574257,0,0.5
2015-07-25 11:24:00,0.0526732673267,0,0.5
2015-07-25 11:34:00,0.0542574257426,0,0.5
2015-07-25 11:44:00,0.0578217821782,0,0.5
2015-07-25 11:54:00,0.0720792079208,0,0.5
2015-07-25 12:04:00,0.0829702970297,0,0.5
2015-07-25 12:14:00,0.0788118811881,0,0.5
2015-07-25 12:24:00,0.080198019802,0,0.5
2015-07-25 12:34:00,0.0849504950495,0,0.5
2015-07-25 12:44:00,0.102376237624,0,0.5
2015-07-25 12:54:00,0.0928712871287,0,0.5
2015-07-25 13:14:00,0.0742574257426,0,0.5
2015-07-25 13:24:00,0.0722772277228,0,0.5
2015-07-25 13:34:00,0.089702970297,0,0.5
2015-07-25 13:54:00,0.0770297029703,0,0.5
2015-07-25 14:34:00,0.0706930693069,0,0.5
2015-07-25 14:44:00,0.059801980198,0,0.5
2015-07-25 15:04:00,0.0431683168317,0,0.5
2015-07-25 16:14:00,0.0275247524752,0,0.5
2015-07-25 16:24:00,0.0253465346535,0,0.5
2015-07-25 16:34:00,0.0267326732673,0,0.5
2015-07-25 16:54:00,0.0277227722772,0,0.5
2015-07-25 17:04:00,0.0231683168317,0,0.5
2015-07-25 17:14:00,0.0136633663366,0,0.5
2015-07-25 17:34:00,0.0170297029703,0,0.5
2015-07-25 18:24:00,0.00910891089109,0,0.5
2015-07-25 18:34:00,0.00950495049505,0,0.5
2015-07-25 18:54:00,0.0118811881188,0,0.5
2015-07-25 19:04:00,0.0156435643564,0,0.5
2015-07-26 10:55:00,0.0190099009901,0,0.5
2015-07-26 11:25:00,0.0194059405941,0,0.5
2015-07-26 12:25:00,0.0433663366337,0,0.5
2015-07-26 12:35:00,0.0475247524752,0,0.5
2015-07-26 12:45:00,0.0421782178218,0,0.5
2015-07-26 12:55:00,0.0245544554455,0,0.5
2015-07-26 15:25:00,0.0241584158416,0,0.5
2015-07-26 19:15:00,0.0231683168317,0,0.5
2015-07-26 19:25:00,0.0271287128713,0,0.5
2015-07-27 07:46:00,0.0213861386139,0,0.5
2015-07-27 09:06:00,0.0342574257426,0,0.5
2015-07-27 09:26:00,0.0271287128713,0,0.5
2015-07-27 09:36:00,0.030099009901,0,0.5
2015-07-27 09:46:00,0.0364356435644,0,0.5
2015-07-27 10:16:00,0.0411881188119,0,0.5
2015-07-27 10:26:00,0.0352475247525,0,0.5
2015-07-27 10:56:00,0.0285148514851,1,0.5
2015-07-27 11:26:00,0.030099009901,1,0.719992475008
2015-07-27 11:36:00,0.0289108910891,1,0.7187637811
2015-07-27 11:56:00,0.040396039604,1,0.705498322678
2015-07-27 12:06:00,0.0263366336634,1,0.711060643223
2015-07-27 12:16:00,0.0370297029703,1,0.704100059307
2015-07-27 12:26:00,0.0356435643564,1,0.700168796845
2015-07-27 12:56:00,0.0352475247525,1,0.701013199084
2015-07-27 13:36:00,0.0358415841584,1,0.704799572127
2015-07-27 13:46:00,0.0346534653465,1,0.70521891406
2015-07-27 16:36:00,0.0425742574257,1,0.695221748212
2015-07-27 17:06:00,0.0619801980198,1,0.672013993511
2015-07-27 17:16:00,0.0568316831683,1,0.65112458507
2015-07-27 17:26:00,0.0524752475248,1,0.625854886844
2015-07-27 17:36:00,0.0532673267327,1,0.60388997822
2015-07-27 18:06:00,0.0322772277228,1,0.60779241128
2015-07-27 18:26:00,0.0382178217822,1,0.605679911725
2015-07-27 18:36:00,0.0405940594059,1,0.601282533643
2015-07-27 18:46:00,0.0342574257426,1,0.602586828951
2015-07-27 18:56:00,0.0336633663366,1,0.603401432427
2015-07-28 13:46:00,0.0184158415842,1,0.623129890397
2015-07-28 13:56:00,0.0170297029703,1,0.658960788324
2015-07-28 14:06:00,0.0261386138614,1,0.682650233453
2015-07-28 14:26:00,0.0251485148515,1,0.703133251543
2015-07-28 14:36:00,0.0328712871287,1,0.718015219184
2015-07-28 14:46:00,0.0352475247525,1,0.715870454148
2015-07-28 14:56:00,0.0328712871287,1,0.71972539731
2015-07-28 15:26:00,0.04,1,0.720152155542
2015-07-28 15:46:00,0.0455445544554,1,0.711990333824
2015-07-28 15:56:00,0.0479207920792,1,0.701522900388
2015-07-28 16:22:00,0.0467326732673,1,0.680237131234
2015-07-28 16:23:00,0.0459405940594,1,0.657875101195
2015-07-28 16:33:00,0.039603960396,1,0.647261635158
2015-07-28 16:43:00,0.0423762376238,1,0.633514716645
2015-07-28 16:53:00,0.0556435643564,1,0.615080043067
2015-07-28 17:03:00,0.0520792079208,1,0.601282533643
2015-07-28 17:33:00,0.0512871287129,1,0.586040669518
2015-07-28 17:53:00,0.0433663366337,1,0.583239725116
2015-07-28 18:23:00,0.04,1,0.587850725251
2015-07-29 10:13:00,0.0293069306931,1,0.603238547708
2015-07-30 09:59:00,0.0556435643564,1,0.595890502311
2015-07-30 12:29:00,0.394851485149,1,0.692094373566
2015-07-30 12:59:00,0.0354455445545,1,0.688966250036
2015-07-30 13:49:00,0.136831683168,1,0.756307837903
2015-07-30 13:59:00,0.108316831683,1,0.790129709789
2015-07-30 14:09:00,0.182574257426,1,0.861111559031
2015-07-30 14:19:00,0.0213861386139,1,0.846496642831
2015-07-30 14:29:00,0.0873267326733,1,0.867644937182
2015-07-30 14:39:00,0.0419801980198,1,0.868547827083
2015-07-30 14:59:00,0.0368316831683,1,0.871939983173
2015-07-30 15:09:00,0.0463366336634,1,0.867735418037
2015-07-30 15:19:00,0.0443564356436,1,0.643507343348
2015-07-30 15:39:00,0.0524752475248,1,0.656962890599
2015-07-30 16:09:00,0.0794059405941,1,0.610894440272
2015-07-30 16:19:00,0.080198019802,1,0.587706811401
2015-07-30 16:29:00,0.0807920792079,1,0.50178051562
2015-07-30 16:39:00,0.160594059406,1,0.618487382932
2015-07-30 16:49:00,0.198217821782,1,0.704757846094
2015-07-30 16:59:00,0.17702970297,1,0.79568540166
2015-07-30 17:09:00,0.189306930693,1,0.875270848338
2015-07-30 17:19:00,0.16396039604,1,0.919640334911
2015-07-30 17:21:00,0.175841584158,1,0.953834192762
2015-07-30 18:10:00,0.0392079207921,1,0.951029056397
2015-07-30 18:30:00,0.0376237623762,1,0.941297335846
2015-07-30 18:37:00,0.0459405940594,1,0.932236626215
2015-07-30 21:09:00,0.0560396039604,1,0.925043681992
2015-07-30 22:22:00,0.0940594059406,1,0.902833278297
2015-07-31 03:11:00,0.0162376237624,1,0.818469858973
2015-07-31 06:29:00,0.0156435643564,1,0.714023331076
2015-07-31 06:37:00,0.0162376237624,1,0.57764594949
2015-07-31 15:59:00,0.0778217821782,1,0.504814666193
2015-07-31 16:09:00,0.10396039604,1,0.556189083273
2015-07-31 16:19:00,0.109306930693,1,0.503297614751
2015-07-31 16:29:00,0.113861386139,1,0.567866441721
2015-07-31 16:39:00,0.125346534653,1,0.633216477835
2015-07-31 16:49:00,0.115643564356,1,0.679953843187
2015-07-31 16:59:00,0.115445544554,1,0.696095800523
2015-07-31 17:09:00,0.12198019802,1,0.769998541494
2015-07-31 17:19:00,0.140594059406,1,0.842663837403
2015-07-31 17:29:00,0.158613861386,1,0.90477930442
2015-07-31 17:39:00,0.154653465347,1,0.929654270972
2015-07-31 17:41:00,0.154455445545,1,0.943057475276
2015-07-31 18:01:00,0.169108910891,1,0.956235350915
2015-07-31 18:11:00,0.141188118812,0,0.961376510967
2015-07-31 18:21:00,0.139603960396,0,0.963856878836
2015-07-31 18:31:00,0.168514851485,0,0.971941759854
2015-07-31 18:51:00,0.186138613861,0,0.980347414479
2015-07-31 19:01:00,0.215841584158,0,0.988128506743
2015-07-31 19:11:00,0.140396039604,0,0.988115425563
2015-07-31 19:21:00,0.111881188119,0,0.984656974018
2015-07-31 19:31:00,0.111089108911,0,0.980687551593
2015-07-31 19:41:00,0.0540594059406,0,0.968125542415
2015-07-31 19:51:00,0.0552475247525,0,0.946406853559
2015-07-31 20:01:00,0.0445544554455,0,0.919955023949
2015-07-31 20:11:00,0.0277227722772,0,0.878199358768
2015-07-31 20:31:00,0.0247524752475,0,0.8049032961
2015-07-31 20:41:00,0.0154455445545,0,0.689712292056
2015-07-31 20:51:00,0.02,0,0.530744082084
2015-07-31 21:01:00,0.019603960396,0,0.571663354322
2015-07-31 21:21:00,0.0271287128713,0,0.641121727033
2015-07-31 21:31:00,0.0326732673267,0,0.701522900388
2015-07-31 21:41:00,0.0338613861386,0,0.716300030687
2015-07-31 22:11:00,0.0342574257426,0,0.731275255906
2015-08-01 16:50:00,0.0160396039604,0,0.750962134904
2015-08-01 17:00:00,0.0158415841584,0,0.758932585491
2015-08-01 18:00:00,0.010297029703,0,0.768439905837
2015-08-01 18:20:00,0.00792079207921,0,0.773304986649
2015-08-01 18:40:00,0.00990099009901,0,0.779742842354
2015-08-01 18:50:00,0.0116831683168,0,0.784717944591
2015-08-01 19:00:00,0.0120792079208,0,0.793988827872
2015-08-02 10:56:00,0.0168316831683,0,0.803487214337
2015-08-02 11:26:00,0.0211881188119,0,0.81089143988
2015-08-02 11:36:00,0.0320792079208,0,0.812146516215
2015-08-02 12:06:00,0.0316831683168,0,0.855159728139
2015-08-02 18:57:00,0.0178217821782,0,0.854169240686
2015-08-03 08:57:00,0.0265346534653,0,0.845875751409
2015-08-03 09:07:00,0.0277227722772,0,0.835347404264
2015-08-03 09:27:00,0.0283168316832,0,0.825147556071
2015-08-03 09:37:00,0.0308910891089,0,0.814091173669
2015-08-03 09:47:00,0.0308910891089,0,0.802852303985
2015-08-03 09:57:00,0.029900990099,0,0.794807496132
2015-08-03 10:27:00,0.0293069306931,0,0.789713194031
2015-08-03 10:37:00,0.0344554455446,0,0.788208245801
2015-08-03 12:47:00,0.0360396039604,0,0.785432865076
2015-08-03 13:07:00,0.0336633663366,0,0.775164059092
2015-08-03 13:37:00,0.0348514851485,0,0.769663303182
2015-08-03 14:48:00,0.0473267326733,0,0.756404223843
2015-08-03 15:08:00,0.0354455445545,0,0.751482480942
2015-08-03 15:28:00,0.0407920792079,0,0.744559790397
2015-08-03 15:38:00,0.0392079207921,0,0.738667800124
2015-08-03 15:58:00,0.0544554455446,0,0.720874188528
2015-08-03 16:18:00,0.0685148514851,0,0.691296509561
2015-08-03 16:38:00,0.0649504950495,0,0.66738670889
2015-08-03 16:58:00,0.0445544554455,0,0.660581571953
2015-08-03 17:08:00,0.0316831683168,0,0.6621689434
2015-08-03 17:28:00,0.039801980198,0,0.658195170616
2015-08-03 17:38:00,0.049702970297,0,0.656281481948
2015-08-03 17:58:00,0.0451485148515,0,0.6484260708
2015-08-03 18:08:00,0.0364356435644,0,0.651961076048
2015-08-03 18:28:00,0.030297029703,0,0.659150496463
2015-08-04 08:28:00,0.0243564356436,0,0.682997797334
2015-08-04 11:44:00,0.020198019802,0,0.719706296698
2015-08-04 13:44:00,0.029702970297,0,0.74511728993
2015-08-04 13:54:00,0.0217821782178,0,0.760869168058
2015-08-04 14:14:00,0.0407920792079,0,0.754633023471
2015-08-04 14:34:00,0.0275247524752,0,0.763017781526
2015-08-04 14:44:00,0.0348514851485,0,0.772946584524
2015-08-04 14:54:00,0.0449504950495,0,0.773077364604
2015-08-04 15:04:00,0.0510891089109,0,0.763285610111
2015-08-04 15:14:00,0.0508910891089,0,0.749140038514
2015-08-04 15:24:00,0.0683168316832,0,0.717510141444
2015-08-04 15:34:00,0.0685148514851,0,0.680675927487
2015-08-04 15:44:00,0.0722772277228,0,0.646653720008
2015-08-04 15:54:00,0.0778217821782,0,0.600062452871
2015-08-04 16:04:00,0.0893069306931,0,0.558514438853
2015-08-04 16:14:00,0.0958415841584,0,0.500993691484
2015-08-04 16:24:00,0.106732673267,0,0.563557746203
2015-08-04 16:34:00,0.104158415842,0,0.613988988298
2015-08-04 16:54:00,0.133069306931,0,0.680595483618
2015-08-04 17:04:00,0.148712871287,0,0.752920854975
2015-08-04 17:14:00,0.149306930693,0,0.805428929879
2015-08-04 17:24:00,0.14495049505,0,0.848179936698
2015-08-04 17:34:00,0.151881188119,0,0.885528370096
2015-08-04 17:44:00,0.161386138614,0,0.917155586406
2015-08-04 17:54:00,0.180198019802,0,0.94355649314
2015-08-04 18:04:00,0.172871287129,0,0.96029634306
2015-08-04 18:14:00,0.158415841584,0,0.969075914009
2015-08-04 18:24:00,0.156831683168,0,0.976305079479
2015-08-04 18:31:00,0.129306930693,0,0.97584068463
2015-08-04 18:41:00,0.104356435644,0,0.96976577167
2015-08-04 18:51:00,0.0706930693069,0,0.955912573257
2015-08-04 19:01:00,0.0437623762376,0,0.93101369627
2015-08-04 19:11:00,0.0293069306931,0,0.887778937956
2015-08-04 23:21:00,0.0227722772277,0,0.818871376391
2015-08-04 23:41:00,0.0281188118812,0,0.718313594656
2015-08-05 09:01:00,0.029900990099,0,0.604327691706
2015-08-05 09:11:00,0.0257425742574,0,0.51042972522
2015-08-05 12:27:00,0.0455445544554,0,0.606418667769
2015-08-05 12:47:00,0.0283168316832,0,0.688387427237
2015-08-05 12:57:00,0.0354455445545,0,0.73965462414
2015-08-05 13:27:00,0.0570297029703,0,0.749278152038
2015-08-05 14:17:00,0.0566336633663,0,0.740217660439
2015-08-05 14:27:00,0.0613861386139,0,0.716923105688
2015-08-05 14:47:00,0.0819801980198,0,0.671475020156
2015-08-05 14:57:00,0.070297029703,0,0.637419471097
2015-08-05 15:06:00,0.0661386138614,0,0.607252944456
2015-08-05 15:27:00,0.0663366336634,0,0.572686258905
2015-08-05 15:37:00,0.0722772277228,0,0.549596185172
2015-08-05 15:47:00,0.0592079207921,0,0.522708742908
2015-08-05 15:56:00,0.0669306930693,0,0.504801778599
2015-08-05 16:07:00,0.0540594059406,0,0.502205381926
2015-08-05 16:46:00,0.0455445544554,0,0.507487772334
2015-08-05 16:56:00,0.050495049505,0,0.517003565705
2015-08-05 17:06:00,0.0487128712871,0,0.545987211207
2015-08-05 17:16:00,0.0457425742574,0,0.567232492785
2015-08-05 17:36:00,0.0534653465347,0,0.578126168923
2015-08-05 17:46:00,0.0552475247525,0,0.587609634833
2015-08-05 17:57:00,0.069702970297,0,0.58980407148
2015-08-05 18:26:00,0.0493069306931,0,0.59821745543
2015-08-05 18:36:00,0.0380198019802,0,0.622512011253
2015-08-05 18:46:00,0.0374257425743,0,0.63627978065
2015-08-05 18:56:00,0.0308910891089,0,0.648265080567
2015-08-05 19:06:00,0.0269306930693,0,0.667229063911
2015-08-06 01:58:00,0.0229702970297,0,0.687466309735
2015-08-06 15:08:00,0.0378217821782,0,0.693584715932
2015-08-06 15:18:00,0.0405940594059,0,0.703412422648
2015-08-06 15:38:00,0.0570297029703,0,0.702060302819
2015-08-06 15:58:00,0.0639603960396,0,0.706407023165
2015-08-06 16:08:00,0.0732673267327,0,0.688080518654
2015-08-06 16:18:00,0.0756435643564,0,0.658354462162
2015-08-06 16:28:00,0.0530693069307,0,0.645685638108
2015-08-06 16:58:00,0.0489108910891,0,0.630890850042
2015-08-06 17:08:00,0.0611881188119,0,0.602240024957
2015-08-06 17:18:00,0.0627722772277,0,0.552018093118
2015-08-06 17:38:00,0.0659405940594,0,0.5257286976
2015-08-06 17:48:00,0.0520792079208,0,0.514951864493
2015-08-06 18:18:00,0.0324752475248,0,0.537968689355
2015-08-06 18:28:00,0.0261386138614,0,0.573147951094
2015-08-06 18:48:00,0.0285148514851,0,0.614013142821
2015-08-06 18:58:00,0.0322772277228,0,0.652444800418
2015-08-06 19:28:00,0.0320792079208,0,0.670525496329
2015-08-06 23:48:00,0.0142574257426,0,0.699505766639
2015-08-07 05:40:00,0.0178217821782,0,0.734052138028
2015-08-07 09:10:00,0.0279207920792,0,0.760277674147
2015-08-07 09:20:00,0.0324752475248,0,0.784069982912
2015-08-07 09:40:00,0.0411881188119,0,0.791507518273
2015-08-07 10:00:00,0.0635643564356,0,0.76987732249
2015-08-07 10:10:00,0.0712871287129,0,0.736342613346
2015-08-07 10:40:00,0.101386138614,0,0.677416249522
2015-08-07 10:50:00,0.139207920792,0,0.58263755977
2015-08-07 11:00:00,0.126534653465,0,0.505510512693
2015-08-07 11:10:00,0.121584158416,0,0.605106122179
2015-08-07 11:20:00,0.12,0,0.694004532256
2015-08-07 11:30:00,0.123168316832,0,0.767780788617
2015-08-07 11:40:00,0.119405940594,0,0.825439272556
2015-08-07 11:50:00,0.13801980198,0,0.877858914591
2015-08-07 12:00:00,0.133861386139,0,0.908226320145
2015-08-07 12:10:00,0.106336633663,0,0.921092624931
2015-08-07 12:30:00,0.122574257426,0,0.928178849299
2015-08-07 12:40:00,0.12396039604,0,0.923130824386
2015-08-07 12:50:00,0.14396039604,0,0.928878747487
2015-08-07 13:00:00,0.141782178218,0,0.935121513589
2015-08-07 13:10:00,0.151287128713,0,0.943941298013
2015-08-07 13:20:00,0.114455445545,0,0.941585942007
2015-08-07 13:30:00,0.13702970297,0,0.946272053972
2015-08-07 13:40:00,0.160396039604,0,0.951787118663
2015-08-07 13:50:00,0.16297029703,0,0.958273282179
2015-08-07 14:00:00,0.178613861386,0,0.971363135713
2015-08-07 14:10:00,0.18495049505,0,0.979726015436
2015-08-07 14:20:00,0.185940594059,0,0.985885776558
2015-08-07 14:30:00,0.155841584158,0,0.986861020143
2015-08-07 14:40:00,0.138613861386,0,0.986606824016
2015-08-07 14:50:00,0.119603960396,0,0.983822529559
2015-08-07 15:00:00,0.133465346535,0,0.985547122263
2015-08-07 15:10:00,0.134653465347,0,0.985340590357
2015-08-07 15:20:00,0.156633663366,0,0.985008388987
2015-08-07 15:50:00,0.161782178218,0,0.984902147808
2015-08-07 16:07:00,0.120396039604,0,0.978842087263
2015-08-07 16:17:00,0.124158415842,0,0.970434955841
2015-08-07 16:27:00,0.138217821782,0,0.962036977095
2015-08-07 16:37:00,0.149108910891,0,0.960708942463
2015-08-07 16:47:00,0.12,0,0.956839671041
2015-08-07 16:57:00,0.105148514851,0,0.95362718097
2015-08-07 17:07:00,0.117227722772,0,0.949792656279