timestamp,value,is_anomaly,anomaly_score
2015-09-01 11:25:00,0.712121212121,0,0.5
2015-09-01 11:30:00,0.787878787879,0,0.5
2015-09-01 11:35:00,0.787878787879,0,0.5
2015-09-01 11:40:00,0.80303030303,0,0.5
2015-09-01 11:55:00,0.712121212121,0,0.5
2015-09-01 12:00:00,0.787878787879,0,0.5
2015-09-01 12:05:00,0.742424242424,0,0.5
2015-09-01 12:10:00,0.742424242424,0,0.5
2015-09-01 12:15:00,0.772727272727,0,0.5
2015-09-01 12:20:00,0.772727272727,0,0.5
2015-09-01 12:25:00,0.727272727273,0,0.5
2015-09-01 12:30:00,0.818181818182,0,0.5
2015-09-01 12:35:00,0.742424242424,0,0.5
2015-09-01 12:45:00,0.787878787879,0,0.5
2015-09-01 12:50:00,0.636363636364,0,0.5
2015-09-01 12:55:00,0.772727272727,0,0.5
2015-09-01 13:05:00,0.742424242424,0,0.5
2015-09-01 13:10:00,0.742424242424,0,0.5
2015-09-01 13:15:00,0.757575757576,0,0.5
2015-09-01 13:20:00,0.757575757576,0,0.5
2015-09-01 13:25:00,0.727272727273,0,0.5
2015-09-01 13:35:00,0.787878787879,0,0.5
2015-09-01 13:45:00,0.818181818182,0,0.5
2015-09-01 13:50:00,0.727272727273,0,0.5
2015-09-01 14:00:00,0.772727272727,0,0.5
2015-09-01 14:05:00,0.712121212121,0,0.5
2015-09-01 14:10:00,0.69696969697,0,0.5
2015-09-01 14:15:00,0.80303030303,0,0.5
2015-09-01 14:30:00,0.712121212121,0,0.5
2015-09-01 14:35:00,0.772727272727,0,0.5
2015-09-01 14:40:00,0.787878787879,0,0.5
2015-09-01 14:50:00,0.772727272727,0,0.5
2015-09-01 14:55:00,0.787878787879,0,0.5
2015-09-01 15:00:00,0.833333333333,0,0.5
2015-09-01 15:05:00,0.666666666667,0,0.5
2015-09-01 15:10:00,0.727272727273,0,0.5
2015-09-01 15:25:00,0.727272727273,0,0.5
2015-09-01 15:30:00,0.727272727273,0,0.5
2015-09-01 15:35:00,0.787878787879,0,0.5
2015-09-01 15:40:00,0.742424242424,0,0.5
2015-09-01 15:45:00,0.787878787879,0,0.5
2015-09-01 15:55:00,0.712121212121,0,0.5
2015-09-01 16:00:00,0.863636363636,0,0.5
2015-09-01 16:05:00,0.787878787879,0,0.5
2015-09-01 16:10:00,0.742424242424,0,0.5
2015-09-01 16:15:00,0.772727272727,0,0.5
2015-09-01 16:20:00,0.727272727273,0,0.5
2015-09-01 16:25:00,0.818181818182,0,0.5
2015-09-01 16:30:00,0.787878787879,0,0.5
2015-09-01 16:40:00,0.818181818182,0,0.5
2015-09-01 16:45:00,0.742424242424,0,0.5
2015-09-01 16:55:00,0.787878787879,0,0.5
2015-09-01 17:05:00,0.772727272727,0,0.5
2015-09-01 17:10:00,0.787878787879,0,0.5
2015-09-01 17:15:00,0.409090909091,0,0.5
2015-09-01 17:20:00,0.409090909091,0,0.5
2015-09-01 17:25:00,0.333333333333,0,0.5
2015-09-01 17:35:00,0.727272727273,0,0.5
2015-09-01 17:40:00,0.787878787879,0,0.5
2015-09-01 17:45:00,0.863636363636,0,0.5
2015-09-01 17:50:00,0.80303030303,0,0.5
2015-09-01 17:55:00,0.818181818182,0,0.5
2015-09-01 17:59:00,0.818181818182,0,0.5
2015-09-01 18:10:00,0.757575757576,0,0.5
2015-09-01 18:15:00,0.787878787879,0,0.5
2015-09-01 18:20:00,0.833333333333,0,0.5
2015-09-01 18:25:00,0.833333333333,0,0.5
2015-09-01 18:30:00,0.742424242424,0,0.5
2015-09-01 18:35:00,0.863636363636,0,0.5
2015-09-01 18:45:00,0.787878787879,0,0.5
2015-09-01 18:50:00,0.787878787879,0,0.5
2015-09-01 19:20:00,0.833333333333,0,0.5
2015-09-01 19:25:00,0.787878787879,0,0.5
2015-09-01 19:35:00,0.727272727273,0,0.5
2015-09-01 19:50:00,0.757575757576,0,0.5
2015-09-01 20:00:00,0.848484848485,0,0.5
2015-09-01 20:15:00,0.727272727273,0,0.5
2015-09-01 20:35:00,0.772727272727,0,0.5
2015-09-01 20:40:00,0.727272727273,0,0.5
2015-09-01 20:50:00,0.742424242424,0,0.5
2015-09-01 20:55:00,0.818181818182,0,0.5
2015-09-01 21:00:00,0.742424242424,0,0.5
2015-09-01 21:05:00,0.772727272727,0,0.5
2015-09-01 21:10:00,0.818181818182,0,0.5
2015-09-01 21:15:00,0.681818181818,0,0.5
2015-09-01 21:20:00,0.833333333333,0,0.5
2015-09-01 21:25:00,0.833333333333,0,0.5
2015-09-01 21:30:00,0.742424242424,0,0.5
2015-09-01 21:35:00,0.893939393939,0,0.5
2015-09-01 21:59:00,0.787878787879,0,0.5
2015-09-01 22:10:00,0.80303030303,0,0.5
2015-09-01 22:20:00,0.712121212121,0,0.5
2015-09-01 22:25:00,0.742424242424,0,0.5
2015-09-01 22:40:00,0.742424242424,0,0.5
2015-09-01 22:45:00,0.727272727273,0,0.5
2015-09-01 22:50:00,0.742424242424,0,0.5
2015-09-01 23:01:00,0.681818181818,0,0.5
2015-09-01 23:05:00,0.712121212121,0,0.5
2015-09-01 23:10:00,0.772727272727,0,0.5
2015-09-01 23:15:00,0.681818181818,0,0.5
2015-09-02 00:05:00,0.969696969697,0,0.5
2015-09-02 00:10:00,0.69696969697,0,0.5
2015-09-02 00:30:00,0.727272727273,0,0.5
2015-09-02 01:25:00,0.772727272727,0,0.5
2015-09-02 01:35:00,0.833333333333,0,0.5
2015-09-02 02:30:00,0.727272727273,0,0.5
2015-09-02 02:40:00,0.712121212121,0,0.5
2015-09-02 02:50:00,0.757575757576,0,0.5
2015-09-02 03:05:00,0.636363636364,0,0.5
2015-09-02 03:10:00,0.636363636364,0,0.5
2015-09-02 03:40:00,0.681818181818,0,0.5
2015-09-02 03:50:00,0.69696969697,0,0.5
2015-09-02 03:55:00,0.681818181818,0,0.5
2015-09-02 04:05:00,0.681818181818,0,0.5
2015-09-02 04:20:00,0.80303030303,0,0.5
2015-09-02 04:25:00,0.666666666667,0,0.5
2015-09-02 04:40:00,0.848484848485,0,0.5
2015-09-02 04:45:00,0.818181818182,0,0.5
2015-09-02 04:50:00,0.863636363636,0,0.5
2015-09-02 04:55:00,0.757575757576,0,0.5
2015-09-02 05:00:00,0.787878787879,0,0.5
2015-09-02 05:10:00,0.833333333333,0,0.5
2015-09-02 05:15:00,0.742424242424,0,0.5
2015-09-02 05:20:00,0.772727272727,0,0.5
2015-09-02 05:30:00,0.878787878788,0,0.5
2015-09-02 05:35:00,0.80303030303,0,0.5
2015-09-02 05:45:00,0.772727272727,0,0.5
2015-09-02 05:50:00,0.787878787879,0,0.5
2015-09-02 05:55:00,0.772727272727,0,0.5
2015-09-02 06:00:00,0.742424242424,0,0.5
2015-09-02 06:05:00,0.757575757576,0,0.5
2015-09-02 06:10:00,0.742424242424,0,0.5
2015-09-02 06:20:00,0.666666666667,0,0.5
2015-09-02 06:25:00,0.681818181818,0,0.5
2015-09-02 06:30:00,0.712121212121,0,0.5
2015-09-02 06:40:00,0.651515151515,0,0.5
2015-09-02 06:45:00,0.363636363636,0,0.5
2015-09-02 06:50:00,0.742424242424,0,0.5
2015-09-02 06:55:00,0.712121212121,0,0.5
2015-09-02 07:00:00,0.727272727273,0,0.5
2015-09-02 07:05:00,0.348484848485,0,0.5
2015-09-02 07:10:00,0.30303030303,0,0.5
2015-09-02 07:15:00,0.621212121212,0,0.5
2015-09-02 07:20:00,0.69696969697,0,0.5
2015-09-02 07:25:00,0.666666666667,0,0.5
2015-09-02 07:30:00,0.621212121212,0,0.5
2015-09-02 07:35:00,0.651515151515,0,0.5
2015-09-02 07:40:00,0.681818181818,0,0.5
2015-09-02 07:45:00,0.651515151515,0,0.5
2015-09-02 07:50:00,0.681818181818,0,0.5
2015-09-02 07:55:00,0.636363636364,0,0.5
2015-09-02 08:00:00,0.545454545455,0,0.5
2015-09-02 08:05:00,0.621212121212,0,0.5
2015-09-02 08:10:00,0.621212121212,0,0.5
2015-09-02 08:15:00,0.712121212121,0,0.5
2015-09-02 08:20:00,0.621212121212,0,0.5
2015-09-02 08:25:00,0.666666666667,0,0.5
2015-09-02 08:30:00,0.545454545455,0,0.5
2015-09-02 08:35:00,0.636363636364,0,0.5
2015-09-02 08:40:00,0.575757575758,0,0.5
2015-09-02 08:45:00,0.575757575758,0,0.5
2015-09-02 08:50:00,0.666666666667,0,0.5
2015-09-02 08:55:00,0.606060606061,0,0.5
2015-09-02 09:00:00,0.636363636364,0,0.5
2015-09-02 09:05:00,0.636363636364,0,0.5
2015-09-02 09:10:00,0.530303030303,0,0.5
2015-09-02 09:15:00,0.621212121212,0,0.5
2015-09-02 09:25:00,0.757575757576,0,0.5
2015-09-02 09:30:00,0.787878787879,0,0.5
2015-09-02 09:35:00,0.772727272727,0,0.5
2015-09-02 09:40:00,0.772727272727,0,0.5
2015-09-02 09:55:00,0.848484848485,0,0.5
2015-09-02 10:00:00,0.757575757576,0,0.5
2015-09-02 10:05:00,0.787878787879,0,0.5
2015-09-02 10:10:00,0.727272727273,0,0.5
2015-09-02 10:15:00,0.757575757576,0,0.5
2015-09-02 10:20:00,0.757575757576,0,0.5
2015-09-02 10:25:00,0.757575757576,0,0.5
2015-09-02 10:30:00,0.757575757576,0,0.5
2015-09-02 10:35:00,0.787878787879,0,0.5
2015-09-02 10:40:00,0.787878787879,0,0.5
2015-09-02 10:45:00,0.757575757576,0,0.5
2015-09-02 10:50:00,0.787878787879,0,0.5
2015-09-02 10:55:00,0.848484848485,0,0.5
2015-09-02 11:00:00,0.727272727273,0,0.5
2015-09-02 11:10:00,0.772727272727,0,0.5
2015-09-02 11:15:00,0.787878787879,0,0.5
2015-09-02 11:25:00,0.818181818182,0,0.5
2015-09-02 11:30:00,0.712121212121,0,0.5
2015-09-02 11:40:00,0.80303030303,0,0.5
2015-09-02 11:45:00,0.772727272727,0,0.5
2015-09-02 11:50:00,0.772727272727,0,0.5
2015-09-02 11:55:00,0.69696969697,0,0.5
2015-09-02 12:00:00,0.772727272727,0,0.5
2015-09-02 12:05:00,0.757575757576,0,0.5
2015-09-02 12:15:00,0.681818181818,0,0.5
2015-09-02 12:20:00,0.772727272727,0,0.5
2015-09-02 12:25:00,0.742424242424,0,0.5
2015-09-02 12:30:00,0.80303030303,0,0.5
2015-09-02 12:35:00,0.757575757576,0,0.5
2015-09-02 12:40:00,0.80303030303,0,0.5
2015-09-02 12:50:00,0.772727272727,0,0.5
2015-09-02 12:55:00,0.818181818182,0,0.5
2015-09-02 13:00:00,0.772727272727,0,0.5
2015-09-02 13:05:00,0.621212121212,0,0.5
2015-09-02 13:10:00,0.742424242424,0,0.5
2015-09-02 13:15:00,0.757575757576,0,0.5
2015-09-02 13:20:00,0.742424242424,0,0.5
2015-09-02 13:25:00,0.772727272727,0,0.5
2015-09-02 13:30:00,0.772727272727,0,0.5
2015-09-02 13:35:00,0.772727272727,0,0.5
2015-09-02 13:40:00,0.818181818182,0,0.5
2015-09-02 13:55:00,0.69696969697,0,0.5
2015-09-02 14:00:00,0.80303030303,0,0.5
2015-09-02 14:05:00,0.787878787879,0,0.5
2015-09-02 14:10:00,0.787878787879,0,0.5
2015-09-02 14:15:00,0.757575757576,0,0.5
2015-09-02 14:20:00,0.757575757576,0,0.5
2015-09-02 14:25:00,0.80303030303,0,0.5
2015-09-02 14:30:00,0.69696969697,0,0.5
2015-09-02 14:35:00,0.772727272727,0,0.5
2015-09-02 14:40:00,0.742424242424,0,0.5
2015-09-02 14:45:00,0.757575757576,0,0.5
2015-09-02 14:50:00,0.742424242424,0,0.5
2015-09-02 15:00:00,0.818181818182,0,0.5
2015-09-02 15:05:00,0.757575757576,0,0.5
2015-09-02 15:10:00,0.772727272727,0,0.5
2015-09-02 15:15:00,0.727272727273,0,0.5
2015-09-02 15:20:00,0.69696969697,0,0.5
2015-09-02 15:25:00,0.742424242424,0,0.5
2015-09-02 15:30:00,0.757575757576,0,0.5
2015-09-02 15:35:00,0.757575757576,0,0.5
2015-09-02 15:40:00,0.787878787879,0,0.5
2015-09-02 15:45:00,0.757575757576,0,0.5
2015-09-02 15:50:00,0.848484848485,0,0.5
2015-09-02 15:55:00,0.742424242424,0,0.5
2015-09-02 16:00:00,0.818181818182,0,0.5
2015-09-02 16:05:00,0.80303030303,0,0.5
2015-09-02 16:10:00,0.787878787879,0,0.5
2015-09-02 16:15:00,0.818181818182,0,0.5
2015-09-02 16:20:00,0.772727272727,0,0.5
2015-09-02 16:25:00,0.80303030303,0,0.5
2015-09-02 16:30:00,0.742424242424,0,0.5
2015-09-02 16:35:00,0.818181818182,0,0.5
2015-09-02 16:40:00,0.727272727273,0,0.5
2015-09-02 16:45:00,0.742424242424,0,0.5
2015-09-02 16:50:00,0.69696969697,0,0.5
2015-09-02 16:55:00,0.69696969697,0,0.5
2015-09-02 17:00:00,0.80303030303,0,0.5
2015-09-02 17:05:00,0.742424242424,0,0.5
2015-09-02 17:10:00,0.757575757576,0,0.5
2015-09-02 17:15:00,0.80303030303,0,0.5
2015-09-02 17:20:00,0.727272727273,0,0.5
2015-09-02 17:25:00,0.80303030303,0,0.5
2015-09-02 17:30:00,0.787878787879,0,0.5
2015-09-02 17:35:00,0.80303030303,0,0.5
2015-09-02 17:40:00,0.80303030303,0,0.5
2015-09-02 17:45:00,0.787878787879,0,0.5
2015-09-02 17:50:00,0.833333333333,0,0.5
2015-09-02 18:05:00,0.757575757576,0,0.5
2015-09-02 18:10:00,0.772727272727,0,0.5
2015-09-02 18:15:00,0.80303030303,0,0.5
2015-09-02 18:30:00,0.80303030303,0,0.5
2015-09-02 18:35:00,0.80303030303,0,0.5
2015-09-02 18:45:00,0.833333333333,0,0.5
2015-09-02 18:55:00,0.848484848485,0,0.5
2015-09-02 19:00:00,0.818181818182,0,0.5
2015-09-02 19:05:00,0.80303030303,0,0.5
2015-09-02 19:10:00,0.818181818182,0,0.5
2015-09-02 19:21:00,0.818181818182,0,0.5
2015-09-02 19:36:00,0.742424242424,0,0.5
2015-09-02 19:41:00,0.818181818182,0,0.5
2015-09-02 19:51:00,0.712121212121,0,0.5
2015-09-02 20:01:00,0.727272727273,0,0.5
2015-09-02 20:06:00,0.757575757576,0,0.5
2015-09-02 20:11:00,0.772727272727,0,0.5
2015-09-02 20:16:00,0.651515151515,0,0.5
2015-09-02 20:21:00,0.80303030303,0,0.5
2015-09-02 20:26:00,0.757575757576,0,0.5
2015-09-02 20:36:00,0.742424242424,0,0.5
2015-09-02 20:41:00,0.818181818182,0,0.5
2015-09-02 20:46:00,0.833333333333,0,0.5
2015-09-02 20:56:00,0.787878787879,0,0.5
2015-09-02 21:06:00,0.818181818182,0,0.5
2015-09-02 21:21:00,0.666666666667,0,0.5
2015-09-02 21:26:00,0.833333333333,0,0.5
2015-09-02 21:36:00,0.757575757576,0,0.5
2015-09-02 21:51:00,0.80303030303,0,0.5
2015-09-02 22:01:00,0.772727272727,0,0.5
2015-09-02 22:06:00,0.787878787879,0,0.5
2015-09-02 22:11:00,0.69696969697,0,0.5
2015-09-02 22:26:00,0.757575757576,0,0.5
2015-09-02 22:41:00,0.742424242424,0,0.5
2015-09-02 22:51:00,0.848484848485,0,0.5
2015-09-02 23:01:00,0.80303030303,0,0.5
2015-09-02 23:11:00,0.712121212121,0,0.5
2015-09-02 23:16:00,0.80303030303,0,0.5
2015-09-02 23:26:00,0.742424242424,0,0.5
2015-09-02 23:41:00,0.712121212121,0,0.5
2015-09-03 00:11:00,0.69696969697,0,0.5
2015-09-03 00:21:00,0.848484848485,0,0.5
2015-09-03 00:26:00,0.681818181818,0,0.5
2015-09-03 00:36:00,0.666666666667,0,0.5
2015-09-03 00:56:00,0.772727272727,0,0.5
2015-09-03 01:01:00,0.515151515152,0,0.5
2015-09-03 01:06:00,0.742424242424,0,0.5
2015-09-03 01:16:00,0.757575757576,0,0.5
2015-09-03 01:31:00,0.787878787879,0,0.5
2015-09-03 01:56:00,0.787878787879,0,0.5
2015-09-03 02:36:00,0.742424242424,0,0.5
2015-09-03 02:46:00,0.712121212121,0,0.5
2015-09-03 02:56:00,0.833333333333,0,0.5
2015-09-03 03:16:00,0.712121212121,0,0.5
2015-09-03 03:31:00,0.757575757576,0,0.5
2015-09-03 03:41:00,0.848484848485,0,0.5
2015-09-03 03:46:00,0.772727272727,0,0.5
2015-09-03 04:11:00,0.757575757576,0,0.5
2015-09-03 04:31:00,0.80303030303,0,0.5
2015-09-03 04:46:00,0.878787878788,0,0.5
2015-09-03 05:01:00,0.757575757576,0,0.5
2015-09-03 05:11:00,0.80303030303,0,0.5
2015-09-03 05:31:00,0.818181818182,0,0.5
2015-09-03 05:36:00,0.833333333333,0,0.5
2015-09-03 05:41:00,0.848484848485,0,0.5
2015-09-03 05:51:00,0.818181818182,0,0.5
2015-09-03 05:56:00,0.863636363636,0,0.5
2015-09-03 06:01:00,0.848484848485,0,0.5
2015-09-03 06:06:00,0.80303030303,0,0.5
2015-09-03 06:11:00,0.833333333333,0,0.5
2015-09-03 06:16:00,0.924242424242,0,0.5
2015-09-03 06:21:00,0.712121212121,0,0.5
2015-09-03 06:26:00,0.80303030303,0,0.5
2015-09-03 06:36:00,0.772727272727,0,0.5
2015-09-03 06:41:00,0.954545454545,0,0.5
2015-09-03 06:51:00,0.818181818182,0,0.5
2015-09-03 07:06:00,0.863636363636,0,0.5
2015-09-03 07:11:00,0.757575757576,0,0.5
2015-09-03 07:16:00,0.80303030303,0,0.5
2015-09-03 07:21:00,0.727272727273,0,0.5
2015-09-03 07:26:00,0.848484848485,0,0.5
2015-09-03 07:31:00,0.787878787879,0,0.5
2015-09-03 07:36:00,0.787878787879,0,0.5
2015-09-03 07:41:00,0.833333333333,0,0.5
2015-09-03 07:46:00,0.727272727273,0,0.5
2015-09-03 07:51:00,0.787878787879,0,0.5
2015-09-03 07:56:00,0.833333333333,0,0.5
2015-09-03 08:01:00,0.757575757576,0,0.5
2015-09-03 08:06:00,0.757575757576,0,0.5
2015-09-03 08:31:00,0.787878787879,0,0.5
2015-09-03 08:36:00,0.681818181818,0,0.5
2015-09-03 08:41:00,0.787878787879,0,0.5
2015-09-03 08:46:00,0.757575757576,0,0.5
2015-09-03 08:51:00,0.818181818182,0,0.5
2015-09-03 09:01:00,0.772727272727,0,0.5
2015-09-03 09:11:00,0.818181818182,0,0.5
2015-09-03 09:16:00,0.80303030303,0,0.5
2015-09-03 09:21:00,0.818181818182,0,0.5
2015-09-03 09:26:00,0.772727272727,0,0.5
2015-09-03 09:31:00,0.833333333333,0,0.5
2015-09-03 09:36:00,0.833333333333,0,0.5
2015-09-03 09:46:00,0.787878787879,0,0.5
2015-09-03 09:51:00,0.742424242424,0,0.5
2015-09-03 09:56:00,0.818181818182,0,0.5
2015-09-03 10:01:00,0.833333333333,0,0.5
2015-09-03 10:06:00,0.742424242424,0,0.5
2015-09-03 10:11:00,0.757575757576,0,0.5
2015-09-03 10:21:00,0.833333333333,0,0.5
2015-09-03 10:26:00,0.848484848485,0,0.5
2015-09-03 10:36:00,0.787878787879,0,0.5
2015-09-03 10:41:00,0.757575757576,0,0.5
2015-09-03 10:46:00,0.727272727273,0,0.5
2015-09-03 10:51:00,0.742424242424,0,0.5
2015-09-03 10:56:00,0.742424242424,0,0.5
2015-09-03 11:06:00,0.787878787879,0,0.5
2015-09-03 11:11:00,0.787878787879,0,0.5
2015-09-03 11:16:00,0.757575757576,0,0.5
2015-09-03 11:26:00,0.757575757576,0,0.5
2015-09-03 11:31:00,0.757575757576,0,0.5
2015-09-03 11:36:00,0.772727272727,0,0.5
2015-09-03 11:41:00,0.757575757576,0,0.5
2015-09-03 11:46:00,0.787878787879,0,0.5
2015-09-03 11:51:00,0.787878787879,0,0.5
2015-09-03 12:01:00,0.80303030303,0,0.5
2015-09-03 12:06:00,0.787878787879,0,0.5
2015-09-03 12:11:00,0.818181818182,0,0.5
2015-09-03 12:16:00,0.818181818182,0,0.5
2015-09-03 12:21:00,0.833333333333,0,0.5
2015-09-03 12:26:00,0.772727272727,0,0.5
2015-09-03 12:31:00,0.787878787879,0,0.67420046278
2015-09-03 12:36:00,0.787878787879,0,0.711208671701
2015-09-03 12:41:00,0.787878787879,0,0.711208671701
2015-09-03 12:51:00,0.757575757576,0,0.67420046278
2015-09-03 12:56:00,0.772727272727,0,0.635390460274
2015-09-03 13:06:00,0.848484848485,0,0.711208671701
2015-09-03 13:11:00,0.863636363636,0,0.762690893134
2015-09-03 13:26:00,0.80303030303,0,0.746109388967
2015-09-03 13:31:00,0.772727272727,0,0.67420046278
2015-09-03 13:36:00,0.787878787879,0,0.692950297347
2015-09-03 13:41:00,0.833333333333,0,0.746109388967
2015-09-03 13:46:00,0.757575757576,0,0.711208671701
2015-09-03 13:51:00,0.772727272727,0,0.679032658896
2015-09-03 14:01:00,0.757575757576,0,0.679032658896
2015-09-03 14:06:00,0.787878787879,0,0.698424225662
2015-09-03 14:11:00,0.757575757576,0,0.575582093348
2015-09-03 14:16:00,0.818181818182,0,0.510359043496
2015-09-03 14:21:00,0.621212121212,0,0.736492846219
2015-09-03 14:26:00,0.848484848485,0,0.639895254641
2015-09-03 14:31:00,0.878787878788,0,0.511531455353
2015-09-03 14:41:00,0.818181818182,0,0.533387261558
2015-09-03 14:51:00,0.787878787879,0,0.510359043496
2015-09-03 14:56:00,0.818181818182,0,0.575582093348
2015-09-03 15:01:00,0.833333333333,0,0.679032658896
2015-09-03 15:06:00,0.69696969697,0,0.55398096122
2015-09-03 15:11:00,0.757575757576,0,0.55398096122
2015-09-03 15:21:00,0.787878787879,0,0.510359043496
2015-09-03 15:26:00,0.772727272727,0,0.717270507503
2015-09-03 15:36:00,0.757575757576,0,0.596958510825
2015-09-03 15:41:00,0.772727272727,0,0.555142828192
2015-09-03 15:51:00,0.80303030303,0,0.576733510278
2015-09-03 15:56:00,0.772727272727,0,0.598096140425
2015-09-03 16:01:00,0.848484848485,0,0.555142828192
2015-09-03 16:06:00,0.787878787879,0,0.619169582408
2015-09-03 16:11:00,0.80303030303,0,0.532218375254
2015-09-03 16:16:00,0.818181818182,0,0.618048955041
2015-09-03 16:26:00,0.878787878788,0,0.735531772501
2015-09-03 16:36:00,0.818181818182,0,0.786479477952
2015-09-03 16:41:00,0.742424242424,0,0.770163963856
2015-09-03 16:46:00,0.818181818182,0,0.817008079413
2015-09-03 16:51:00,0.772727272727,0,0.786479477952
2015-09-03 17:01:00,0.833333333333,0,0.844655742577
2015-09-03 17:06:00,0.833333333333,0,0.831195460208
2015-09-03 17:11:00,0.818181818182,0,0.857387797724
2015-09-03 17:21:00,0.80303030303,0,0.857387797724
2015-09-03 17:26:00,0.757575757576,0,0.802099279855
2015-09-03 17:36:00,0.80303030303,0,0.717270507503
2015-09-03 17:41:00,0.787878787879,0,0.679032658896
2015-09-03 17:46:00,0.848484848485,0,0.802099279855
2015-09-03 17:51:00,0.787878787879,0,0.770163963856
2015-09-03 17:56:00,0.833333333333,0,0.831195460208
2015-09-03 18:01:00,0.833333333333,0,0.831195460208
2015-09-03 18:06:00,0.818181818182,0,0.817008079413
2015-09-03 18:11:00,0.80303030303,0,0.802099279855
2015-09-03 18:16:00,0.833333333333,0,0.831195460208
2015-09-03 18:21:00,0.848484848485,0,0.901156572244
2015-09-03 18:26:00,0.787878787879,0,0.891266491744
2015-09-03 18:31:00,0.787878787879,0,0.891266491744
2015-09-03 18:36:00,0.80303030303,0,0.857387797724
2015-09-03 18:46:00,0.818181818182,0,0.880684049556
2015-09-03 18:51:00,0.848484848485,0,0.891266491744
2015-09-03 18:56:00,0.80303030303,0,0.869394818078
2015-09-03 19:01:00,0.878787878788,0,0.910371801496
2015-09-03 19:06:00,0.772727272727,0,0.891266491744
2015-09-03 19:11:00,0.772727272727,0,0.844655742577
2015-09-03 19:16:00,0.833333333333,0,0.831195460208
2015-09-03 19:21:00,0.833333333333,0,0.869394818078
2015-09-03 19:31:00,0.909090909091,0,0.940922086859
2015-09-03 19:42:00,0.878787878788,0,0.966891560902
2015-09-03 19:47:00,0.80303030303,0,0.962631451133
2015-09-03 19:57:00,0.787878787879,0,0.940922086859
2015-09-03 20:02:00,0.818181818182,0,0.94710828264
2015-09-03 20:07:00,0.787878787879,0,0.901156572244
2015-09-03 20:17:00,0.787878787879,0,0.910371801496
2015-09-03 20:42:00,0.772727272727,0,0.910371801496
2015-09-03 20:47:00,0.833333333333,0,0.910371801496
2015-09-03 20:57:00,0.848484848485,0,0.918932414342
2015-09-03 21:07:00,0.742424242424,0,0.786479477952
2015-09-03 21:12:00,0.757575757576,0,0.638794694871
2015-09-03 21:17:00,0.878787878788,0,0.735531772501
2015-09-03 21:22:00,0.772727272727,0,0.717270507503
2015-09-03 21:27:00,0.772727272727,0,0.65914001476
2015-09-03 21:32:00,0.893939393939,0,0.786479477952
2015-09-03 21:37:00,0.818181818182,0,0.817008079413
2015-09-03 21:42:00,0.833333333333,0,0.869394818078
2015-09-03 21:47:00,0.878787878788,0,0.901156572244
2015-09-03 22:02:00,0.742424242424,0,0.817008079413
2015-09-03 22:12:00,0.787878787879,0,0.857387797724
2015-09-03 22:22:00,0.80303030303,0,0.891266491744
2015-09-03 23:02:00,0.772727272727,0,0.802099279855
2015-09-03 23:22:00,0.772727272727,0,0.802099279855
2015-09-03 23:37:00,0.727272727273,0,0.753172985002
2015-09-03 23:42:00,0.651515151515,0,0.576733510278
2015-09-03 23:47:00,0.757575757576,0,0.660217616069
2015-09-04 00:02:00,0.863636363636,0,0.619169582408
2015-09-04 00:17:00,0.787878787879,0,0.736492846219
2015-09-04 00:27:00,0.787878787879,0,0.680084607825
2015-09-04 01:02:00,0.757575757576,0,0.718263952784
2015-09-04 01:17:00,0.727272727273,0,0.802916103651
2015-09-04 01:37:00,0.712121212121,0,0.858049363687
2015-09-04 01:42:00,0.727272727273,0,0.891813726216
2015-09-04 01:57:00,0.848484848485,0,0.787334047394
2015-09-04 02:02:00,0.772727272727,0,0.639895254641
2015-09-04 02:22:00,0.893939393939,0,0.55398096122
2015-09-04 03:57:00,0.606060606061,0,0.787334047394
2015-09-04 04:12:00,0.80303030303,0,0.771055334659
2015-09-04 04:17:00,0.80303030303,0,0.754099946122
2015-09-04 04:22:00,0.742424242424,0,0.771055334659
2015-09-04 04:27:00,0.575757575758,0,0.901667184242
2015-09-04 04:32:00,0.757575757576,0,0.870017712607
2015-09-04 04:37:00,0.833333333333,0,0.771055334659
2015-09-04 04:52:00,0.80303030303,0,0.817786476984
2015-09-04 05:17:00,0.863636363636,0,0.804134051347
2015-09-04 05:22:00,0.787878787879,0,0.898237859623
2015-09-04 05:27:00,0.863636363636,0,0.603913348496
2015-09-04 05:42:00,0.772727272727,0,0.648801868418
2015-09-04 05:52:00,0.80303030303,0,0.648801868418
2015-09-04 05:57:00,0.848484848485,0,0.513165145475
2015-09-04 06:02:00,0.818181818182,0,0.83689887097
2015-09-04 06:07:00,0.787878787879,0,0.864418970268
2015-09-04 06:12:00,0.69696969697,0,0.714540397992
2015-09-04 06:17:00,0.787878787879,0,0.694062602707
2015-09-04 06:22:00,0.787878787879,0,0.583518712786
2015-09-04 06:27:00,0.757575757576,0,0.536772239185
2015-09-04 06:32:00,0.772727272727,0,0.603913348496
2015-09-04 06:37:00,0.772727272727,0,0.603913348496
2015-09-04 06:42:00,0.833333333333,0,0.557601637473
2015-09-04 06:47:00,0.787878787879,0,0.648801868418
2015-09-04 06:52:00,0.772727272727,0,0.712255216649
2015-09-04 06:57:00,0.878787878788,0,0.580897639357
2015-09-04 07:02:00,0.818181818182,0,0.606497813297
2015-09-04 07:07:00,0.833333333333,0,0.672959487873
2015-09-04 07:12:00,0.787878787879,0,0.672959487873
2015-09-04 07:17:00,0.818181818182,0,0.753421583942
2015-09-04 07:22:00,0.727272727273,0,0.694062602707
2015-09-04 07:32:00,0.757575757576,0,0.672959487873
2015-09-04 07:42:00,0.80303030303,0,0.629111764921
2015-09-04 07:47:00,0.772727272727,0,0.606497813297
2015-09-04 08:07:00,0.80303030303,0,0.651288274533
2015-09-04 08:12:00,0.833333333333,0,0.583518712786
2015-09-04 08:17:00,0.772727272727,0,0.513165145475
2015-09-04 08:22:00,0.80303030303,0,0.534104674894
2015-09-04 08:27:00,0.772727272727,0,0.557601637473
2015-09-04 08:32:00,0.80303030303,0,0.580897639357
2015-09-04 08:37:00,0.727272727273,0,0.580897639357
2015-09-04 08:42:00,0.787878787879,0,0.534104674894
2015-09-04 08:47:00,0.727272727273,0,0.648801868418
2015-09-04 08:57:00,0.818181818182,0,0.580897639357
2015-09-04 09:02:00,0.80303030303,0,0.580897639357
2015-09-04 09:07:00,0.772727272727,0,0.670533536592
2015-09-04 09:22:00,0.727272727273,0,0.732135449715
2015-09-04 09:27:00,0.772727272727,0,0.76970708219
2015-09-04 09:32:00,0.742424242424,0,0.804134051347
2015-09-04 09:42:00,0.742424242424,0,0.862951731338
2015-09-04 09:47:00,0.848484848485,0,0.732135449715
2015-09-04 09:52:00,0.727272727273,0,0.804134051347
2015-09-04 09:57:00,0.787878787879,0,0.732135449715
2015-09-04 10:07:00,0.742424242424,0,0.820108828905
2015-09-04 10:12:00,0.787878787879,0,0.835239472085
2015-09-04 10:22:00,0.787878787879,0,0.820108828905
2015-09-04 10:27:00,0.712121212121,0,0.835239472085
2015-09-04 10:32:00,0.757575757576,0,0.849520295856
2015-09-04 10:42:00,0.833333333333,0,0.751299069283
2015-09-04 10:52:00,0.742424242424,0,0.751299069283
2015-09-04 10:57:00,0.772727272727,0,0.835239472085
2015-09-04 11:02:00,0.757575757576,0,0.804134051347
2015-09-04 11:12:00,0.757575757576,0,0.835239472085
2015-09-04 11:17:00,0.772727272727,0,0.804134051347
2015-09-04 11:22:00,0.80303030303,0,0.78732723132
2015-09-04 11:27:00,0.742424242424,0,0.835239472085
2015-09-04 11:32:00,0.772727272727,0,0.76970708219
2015-09-04 11:37:00,0.787878787879,0,0.732135449715
2015-09-04 11:42:00,0.787878787879,0,0.78732723132
2015-09-04 11:52:00,0.787878787879,0,0.732135449715
2015-09-04 11:57:00,0.893939393939,0,0.557601637473
2015-09-04 12:27:00,0.787878787879,0,0.510488184522
2015-09-04 12:37:00,0.833333333333,0,0.606497813297
2015-09-04 12:47:00,0.863636363636,0,0.734341671937
2015-09-04 13:12:00,0.772727272727,0,0.694062602707
2015-09-04 13:17:00,0.818181818182,0,0.789271123447
2015-09-04 13:22:00,0.787878787879,0,0.805984564516
2015-09-04 13:27:00,0.712121212121,0,0.714540397992
2015-09-04 13:37:00,0.757575757576,0,0.672959487873
2015-09-04 13:47:00,0.787878787879,0,0.672959487873
2015-09-04 14:02:00,0.878787878788,0,0.651288274533
2015-09-04 14:12:00,0.772727272727,0,0.629111764921
2015-09-04 14:17:00,0.80303030303,0,0.583518712786
2015-09-04 14:22:00,0.818181818182,0,0.513165145475
2015-09-04 14:27:00,0.772727272727,0,0.513165145475
2015-09-04 14:37:00,0.863636363636,0,0.583518712786
2015-09-04 14:47:00,0.818181818182,0,0.629111764921
2015-09-04 14:52:00,0.772727272727,0,0.714540397992
2015-09-04 14:57:00,0.742424242424,0,0.694062602707
2015-09-04 15:07:00,0.863636363636,0,0.789271123447
2015-09-04 15:12:00,0.787878787879,0,0.672959487873
2015-09-04 15:17:00,0.787878787879,0,0.694062602707
2015-09-04 15:27:00,0.818181818182,0,0.714540397992
2015-09-04 15:32:00,0.818181818182,0,0.714540397992
2015-09-04 15:37:00,0.833333333333,0,0.789271123447
2015-09-04 15:52:00,0.818181818182,0,0.734341671937
2015-09-04 15:57:00,0.80303030303,0,0.714540397992
2015-09-04 16:07:00,0.833333333333,0,0.789271123447
2015-09-04 16:12:00,0.833333333333,0,0.876912382091
2015-09-04 16:17:00,0.742424242424,0,0.753421583942
2015-09-04 16:22:00,0.772727272727,0,0.734341671937
2015-09-04 16:27:00,0.863636363636,0,0.821864265136
2015-09-04 16:37:00,0.878787878788,0,0.876912382091
2015-09-04 17:02:00,0.848484848485,0,0.899426012578
2015-09-04 17:07:00,0.772727272727,0,0.851083405305
2015-09-04 17:12:00,0.818181818182,0,0.851083405305
2015-09-04 17:17:00,0.924242424242,0,0.935175096771
2015-09-04 17:22:00,0.80303030303,0,0.918776077476
2015-09-04 17:32:00,0.772727272727,0,0.896459806485
2015-09-04 17:37:00,0.863636363636,0,0.962784082703
2015-09-04 17:42:00,0.742424242424,0,0.950872297674
2015-09-04 17:52:00,0.878787878788,0,0.957161878076
2015-09-04 18:02:00,0.787878787879,0,0.907733051278
2015-09-04 18:07:00,0.80303030303,0,0.870984137093
2015-09-04 18:12:00,0.787878787879,0,0.884219010275
2015-09-04 18:17:00,0.772727272727,0,0.841460059659
2015-09-04 18:27:00,0.848484848485,0,0.749853742279
2015-09-04 18:32:00,0.848484848485,0,0.807821879692
2015-09-04 18:42:00,0.818181818182,0,0.856735304392
2015-09-04 18:47:00,0.833333333333,0,0.82515409663
2015-09-04 18:52:00,0.848484848485,0,0.91807107666
2015-09-04 18:57:00,0.863636363636,0,0.907733051278
2015-09-04 19:12:00,0.787878787879,0,0.907733051278
2015-09-04 19:22:00,0.80303030303,0,0.907733051278
2015-09-04 19:37:00,0.909090909091,0,0.967788355882
2015-09-04 19:47:00,0.848484848485,0,0.985210635597
2015-09-04 19:52:00,0.848484848485,0,0.985210635597
2015-09-04 19:57:00,0.742424242424,0,0.957161878076
2015-09-04 20:02:00,0.80303030303,0,0.950872297674
2015-09-04 20:12:00,0.818181818182,0,0.94386604034
2015-09-04 20:17:00,0.818181818182,0,0.927511155841
2015-09-04 20:18:00,0.848484848485,0,0.91807107666
2015-09-04 20:23:00,0.818181818182,0,0.936094629258
2015-09-04 20:28:00,0.787878787879,0,0.927511155841
2015-09-04 20:33:00,0.772727272727,0,0.807821879692
2015-09-04 21:03:00,0.863636363636,0,0.82515409663
2015-09-04 21:08:00,0.818181818182,0,0.789477156382
2015-09-04 21:13:00,0.772727272727,0,0.82515409663
2015-09-04 21:18:00,0.772727272727,0,0.789477156382
2015-09-04 21:23:00,0.833333333333,0,0.807821879692
2015-09-04 21:28:00,0.757575757576,0,0.728651654204
2015-09-04 21:38:00,0.80303030303,0,0.66014975925
2015-09-04 21:43:00,0.833333333333,0,0.683732299424
2015-09-04 21:48:00,0.757575757576,0,0.635923110693
2015-09-04 21:53:00,0.757575757576,0,0.611140589724
2015-09-04 22:03:00,0.80303030303,0,0.508431159995
2015-09-04 22:08:00,0.621212121212,0,0.796059146757
2015-09-04 22:13:00,0.787878787879,0,0.777070759331
2015-09-04 22:23:00,0.757575757576,0,0.796059146757
2015-09-08 10:44:00,0.818181818182,0,0.814049064939
2015-09-08 10:54:00,0.848484848485,0,0.691877779672
2015-09-08 10:59:00,0.787878787879,0,0.714462646543
2015-09-08 11:04:00,0.80303030303,0,0.757113708346
2015-09-08 11:14:00,0.787878787879,0,0.714462646543
2015-09-08 11:19:00,0.833333333333,0,0.594843525938
2015-09-08 11:24:00,0.787878787879,0,0.619935635367
2015-09-08 11:29:00,0.863636363636,0,0.770143339455
2015-09-08 11:34:00,0.818181818182,0,0.807821879692
2015-09-08 11:49:00,0.833333333333,0,0.884219010275
2015-09-08 11:54:00,0.848484848485,0,0.907733051278
2015-09-08 11:59:00,0.772727272727,0,0.841460059659
2015-09-08 12:04:00,0.818181818182,0,0.870984137093
2015-09-08 12:09:00,0.80303030303,0,0.870984137093
2015-09-08 12:19:00,0.80303030303,0,0.884219010275
2015-09-08 12:24:00,0.772727272727,0,0.82515409663
2015-09-08 12:27:00,0.833333333333,0,0.870984137093
2015-09-08 12:32:00,0.787878787879,0,0.789477156382
2015-09-08 12:36:00,0.818181818182,0,0.789477156382