timestamp,value,is_anomaly,anomaly_score
2015-09-01 13:45:00,0.137342908438,0,0.5
2015-09-01 13:50:00,0.289048473968,0,0.5
2015-09-01 13:55:00,0.232046678636,0,0.5
2015-09-01 14:00:00,0.171903052065,0,0.5
2015-09-01 14:05:00,0.20197486535,0,0.5
2015-09-01 14:20:00,0.131956912029,0,0.5
2015-09-01 14:25:00,0.102333931777,0,0.5
2015-09-01 14:35:00,0.0749551166966,0,0.5
2015-09-01 14:40:00,0.845152603232,0,0.5
2015-09-01 14:45:00,0.538599640934,0,0.5
2015-09-01 14:50:00,0.58842010772,0,0.5
2015-09-01 14:55:00,0.57091561939,0,0.5
2015-09-01 15:20:00,0.0749551166966,0,0.5
2015-09-01 17:15:00,0.573608617594,0,0.5
2015-09-01 17:25:00,0.336624775583,0,0.5
2015-09-01 17:30:00,0.0870736086176,0,0.5
2015-09-01 17:35:00,0.166965888689,0,0.5
2015-09-01 17:45:00,0.122082585278,0,0.5
2015-09-01 17:55:00,0.171903052065,0,0.5
2015-09-01 18:10:00,0.171903052065,0,0.5
2015-09-01 18:45:00,0.0821364452424,0,0.5
2015-09-01 18:50:00,0.114901256732,0,0.5
2015-09-01 19:00:00,0.102333931777,0,0.5
2015-09-01 19:05:00,0.102333931777,0,0.5
2015-09-01 19:10:00,0.354129263914,0,0.5
2015-09-01 19:20:00,0.102333931777,0,0.5
2015-09-01 19:25:00,0.0924596050269,0,0.5
2015-09-01 19:30:00,0.052513464991,0,0.5
2015-09-01 19:40:00,0.052513464991,0,0.5
2015-09-01 19:55:00,0.0700179533214,0,0.5
2015-09-01 20:00:00,0.162028725314,0,0.5
2015-09-01 20:05:00,0.122082585278,0,0.5
2015-09-01 20:10:00,0.052513464991,0,0.5
2015-09-01 20:20:00,0.154398563734,0,0.5
2015-09-01 20:25:00,0.157091561939,0,0.5
2015-09-01 20:30:00,0.20197486535,0,0.5
2015-09-01 20:45:00,0.064631956912,0,0.5
2015-09-01 20:55:00,0.244165170557,0,0.5
2015-09-01 21:05:00,0.0749551166966,0,0.5
2015-09-01 21:25:00,0.232046678636,0,0.5
2015-09-01 21:40:00,0.0924596050269,0,0.5
2015-09-01 22:30:00,0.114901256732,0,0.5
2015-09-01 22:35:00,0.131956912029,0,0.5
2015-09-01 22:40:00,0.064631956912,0,0.5
2015-09-01 22:45:00,0.131956912029,0,0.5
2015-09-01 23:01:00,0.0821364452424,0,0.5
2015-09-01 23:05:00,0.0870736086176,0,0.5
2015-09-01 23:10:00,0.0973967684022,0,0.5
2015-09-01 23:20:00,0.0448833034111,0,0.5
2015-09-01 23:40:00,0.0399461400359,0,0.5
2015-09-02 00:00:00,0.0623877917415,0,0.5
2015-09-02 00:05:00,0.0125673249551,0,0.5
2015-09-02 00:15:00,0.0175044883303,0,0.5
2015-09-02 00:20:00,0.0448833034111,0,0.5
2015-09-02 00:35:00,0.0448833034111,0,0.5
2015-09-02 01:00:00,0.0224416517056,0,0.5
2015-09-02 01:35:00,0.00987432675045,0,0.5
2015-09-02 02:10:00,0.224416517056,0,0.5
2015-09-02 02:25:00,0.0224416517056,0,0.5
2015-09-02 02:40:00,0.0,0,0.5
2015-09-02 03:05:00,0.0224416517056,0,0.5
2015-09-02 03:10:00,0.0,0,0.5
2015-09-02 03:35:00,0.0749551166966,0,0.5
2015-09-02 04:15:00,0.0973967684022,0,0.5
2015-09-02 04:20:00,0.0224416517056,0,0.5
2015-09-02 04:25:00,0.064631956912,0,0.5
2015-09-02 04:30:00,0.0623877917415,0,0.5
2015-09-02 04:35:00,0.157091561939,0,0.5
2015-09-02 04:45:00,0.114901256732,0,0.5
2015-09-02 04:50:00,0.114901256732,0,0.5
2015-09-02 05:00:00,0.271992818671,0,0.5
2015-09-02 05:05:00,0.0924596050269,0,0.5
2015-09-02 05:15:00,0.197037701975,0,0.5
2015-09-02 05:20:00,0.244165170557,0,0.5
2015-09-02 05:25:00,0.556104129264,0,0.5
2015-09-02 05:30:00,0.261669658887,0,0.5
2015-09-02 05:35:00,0.20197486535,0,0.5
2015-09-02 05:45:00,0.416517055655,0,0.5
2015-09-02 05:50:00,0.241921005386,0,0.5
2015-09-02 05:55:00,0.41157989228,0,0.5
2015-09-02 06:00:00,0.336624775583,0,0.5
2015-09-02 06:05:00,0.463644524237,0,0.5
2015-09-02 06:10:00,0.468581687612,0,0.5
2015-09-02 06:15:00,0.491023339318,0,0.5
2015-09-02 06:20:00,0.399012567325,0,0.5
2015-09-02 06:25:00,0.700628366248,0,0.5
2015-09-02 06:30:00,0.533662477558,0,0.5
2015-09-02 06:35:00,0.763016157989,0,0.5
2015-09-02 06:40:00,0.351436265709,0,0.5
2015-09-02 06:45:00,0.498653500898,0,0.5
2015-09-02 06:50:00,0.643177737882,0,0.5
2015-09-02 06:55:00,0.486086175943,0,0.5
2015-09-02 07:00:00,0.364003590664,0,0.5
2015-09-02 07:05:00,0.665619389587,0,0.5
2015-09-02 07:10:00,0.61355475763,0,0.5
2015-09-02 07:15:00,0.740574506284,0,0.5
2015-09-02 07:20:00,0.551166965889,0,0.5
2015-09-02 07:25:00,0.496409335727,0,0.5
2015-09-02 07:30:00,0.341561938959,0,0.5
2015-09-02 07:35:00,0.513464991023,0,0.5
2015-09-02 07:40:00,0.284111310592,0,0.5
2015-09-02 07:45:00,0.623429084381,0,0.5
2015-09-02 07:50:00,0.423698384201,0,0.5
2015-09-02 07:55:00,0.122082585278,0,0.5
2015-09-02 08:00:00,0.276929982047,0,0.5
2015-09-02 08:05:00,0.530969479354,0,0.5
2015-09-02 08:10:00,0.381508078995,0,0.5
2015-09-02 08:15:00,0.271992818671,0,0.5
2015-09-02 08:20:00,0.336624775583,0,0.5
2015-09-02 08:30:00,0.438958707361,0,0.5
2015-09-02 08:35:00,0.533662477558,0,0.5
2015-09-02 08:45:00,0.416517055655,0,0.5
2015-09-02 08:50:00,0.289048473968,0,0.5
2015-09-02 08:55:00,0.1921005386,0,0.5
2015-09-02 09:00:00,0.306552962298,0,0.5
2015-09-02 09:05:00,0.359066427289,0,0.5
2015-09-02 09:10:00,0.4039497307,0,0.5
2015-09-02 09:20:00,0.0475763016158,0,0.5
2015-09-02 09:30:00,0.18447037702,0,0.5
2015-09-02 09:35:00,0.364003590664,0,0.5
2015-09-02 09:40:00,0.22710951526,0,0.5
2015-09-02 09:50:00,0.206912028725,0,0.5
2015-09-02 09:55:00,0.0448833034111,0,0.5
2015-09-02 10:00:00,0.0623877917415,0,0.5
2015-09-02 10:10:00,0.189407540395,0,0.5
2015-09-02 10:15:00,0.149461400359,0,0.5
2015-09-02 10:20:00,0.20960502693,0,0.5
2015-09-02 10:25:00,0.149461400359,0,0.5
2015-09-02 10:30:00,0.131956912029,0,0.5
2015-09-02 10:35:00,0.171903052065,0,0.5
2015-09-02 10:40:00,0.0798922800718,0,0.5
2015-09-02 10:45:00,0.174596050269,0,0.5
2015-09-02 10:50:00,0.157091561939,0,0.5
2015-09-02 11:00:00,0.299371633752,0,0.5
2015-09-02 11:15:00,0.102333931777,0,0.5
2015-09-02 11:20:00,0.241921005386,0,0.5
2015-09-02 11:25:00,0.18447037702,0,0.5
2015-09-02 11:30:00,0.0973967684022,0,0.5
2015-09-02 11:35:00,0.149461400359,0,0.5
2015-09-02 12:00:00,0.0574506283662,0,0.5
2015-09-02 12:05:00,0.102333931777,0,0.5
2015-09-02 12:10:00,0.1921005386,0,0.5
2015-09-02 12:15:00,0.316876122083,0,0.5
2015-09-02 12:25:00,0.20960502693,0,0.5
2015-09-02 12:35:00,0.20197486535,0,0.5
2015-09-02 12:40:00,0.21947935368,0,0.5
2015-09-02 12:45:00,0.319120287253,0,0.5
2015-09-02 12:50:00,0.104578096948,0,0.5
2015-09-02 12:55:00,0.137342908438,0,0.5
2015-09-02 13:05:00,0.0700179533214,0,0.5
2015-09-02 13:10:00,0.149461400359,0,0.5
2015-09-02 13:15:00,0.189407540395,0,0.5
2015-09-02 13:20:00,0.354129263914,0,0.5
2015-09-02 13:25:00,0.1921005386,0,0.5
2015-09-02 13:30:00,0.144524236984,0,0.5
2015-09-02 13:35:00,0.22710951526,0,0.5
2015-09-02 13:40:00,0.0448833034111,0,0.5
2015-09-02 13:45:00,0.21947935368,0,0.5
2015-09-02 13:50:00,0.0973967684022,0,0.5
2015-09-02 13:55:00,0.281867145422,0,0.5
2015-09-02 14:05:00,0.0448833034111,0,0.5
2015-09-02 14:15:00,0.281867145422,0,0.5
2015-09-02 14:20:00,0.301615798923,0,0.5
2015-09-02 14:25:00,0.266606822262,0,0.5
2015-09-02 14:30:00,0.197037701975,0,0.5
2015-09-02 14:35:00,0.22710951526,0,0.5
2015-09-02 14:50:00,0.261669658887,0,0.5
2015-09-02 14:55:00,0.166965888689,0,0.5
2015-09-02 15:05:00,0.149461400359,0,0.5
2015-09-02 15:10:00,0.20960502693,0,0.5
2015-09-02 15:15:00,0.206912028725,0,0.5
2015-09-02 15:20:00,0.1921005386,0,0.5
2015-09-02 15:25:00,0.109515260323,0,0.5
2015-09-02 15:30:00,0.139587073609,0,0.5
2015-09-02 15:35:00,0.139587073609,0,0.5
2015-09-02 15:40:00,0.127019748654,0,0.5
2015-09-02 15:45:00,0.276929982047,0,0.5
2015-09-02 15:50:00,0.224416517056,0,0.5
2015-09-02 16:05:00,0.064631956912,0,0.5
2015-09-02 16:15:00,0.0973967684022,0,0.5
2015-09-02 16:20:00,0.154398563734,0,0.5
2015-09-02 16:25:00,0.306552962298,0,0.5
2015-09-02 16:30:00,0.354129263914,0,0.5
2015-09-02 16:50:00,0.421454219031,0,0.5
2015-09-02 16:55:00,0.328994614004,0,0.5
2015-09-02 17:00:00,0.244165170557,0,0.5
2015-09-02 17:10:00,0.381508078995,0,0.5
2015-09-02 17:20:00,0.351436265709,0,0.5
2015-09-02 17:35:00,0.179533213645,0,0.5
2015-09-02 17:45:00,0.214542190305,0,0.5
2015-09-02 18:05:00,0.122082585278,0,0.5
2015-09-02 18:10:00,0.241921005386,0,0.5
2015-09-02 18:15:00,0.114901256732,0,0.5
2015-09-02 18:20:00,0.171903052065,0,0.5
2015-09-02 18:30:00,0.20960502693,0,0.5
2015-09-02 18:35:00,0.206912028725,0,0.5
2015-09-02 18:45:00,0.0350089766607,0,0.5
2015-09-02 18:50:00,0.0700179533214,0,0.5
2015-09-02 19:00:00,0.179533213645,0,0.5
2015-09-02 19:05:00,0.18447037702,0,0.5
2015-09-02 19:10:00,0.197037701975,0,0.5
2015-09-02 19:15:00,0.119838420108,0,0.5
2015-09-02 19:21:00,0.20960502693,0,0.5
2015-09-02 19:26:00,0.189407540395,0,0.5
2015-09-02 19:46:00,0.21947935368,0,0.5
2015-09-02 19:56:00,0.052513464991,0,0.5
2015-09-02 20:11:00,0.104578096948,0,0.5
2015-09-02 20:46:00,0.21947935368,0,0.5
2015-09-02 20:56:00,0.174596050269,0,0.5
2015-09-02 21:00:00,0.206912028725,0,0.5
2015-09-02 21:16:00,0.166965888689,0,0.5
2015-09-02 21:21:00,0.157091561939,0,0.5
2015-09-02 21:31:00,0.052513464991,0,0.5
2015-09-02 21:36:00,0.119838420108,0,0.5
2015-09-02 21:46:00,0.20960502693,0,0.5
2015-09-02 21:51:00,0.102333931777,0,0.5
2015-09-02 22:11:00,0.0574506283662,0,0.5
2015-09-02 22:21:00,0.154398563734,0,0.5
2015-09-02 22:31:00,0.119838420108,0,0.5
2015-09-02 22:36:00,0.114901256732,0,0.5
2015-09-02 22:41:00,0.0350089766607,0,0.5
2015-09-02 22:51:00,0.0700179533214,0,0.5
2015-09-02 23:51:00,0.131956912029,0,0.5
2015-09-03 00:01:00,0.0821364452424,0,0.5
2015-09-03 00:11:00,0.0,0,0.5
2015-09-03 00:21:00,0.104578096948,0,0.5
2015-09-03 00:36:00,0.0475763016158,0,0.5
2015-09-03 00:41:00,0.00987432675045,0,0.5
2015-09-03 00:51:00,0.0125673249551,0,0.5
2015-09-03 01:21:00,0.0448833034111,0,0.5
2015-09-03 01:26:00,0.0574506283662,0,0.5
2015-09-03 01:51:00,0.064631956912,0,0.5
2015-09-03 01:56:00,0.0224416517056,0,0.5
2015-09-03 02:01:00,0.0273788150808,0,0.5
2015-09-03 02:11:00,0.0125673249551,0,0.5
2015-09-03 02:16:00,0.0798922800718,0,0.5
2015-09-03 02:21:00,0.0125673249551,0,0.5
2015-09-03 03:11:00,0.0870736086176,0,0.5
2015-09-03 03:21:00,0.0448833034111,0,0.5
2015-09-03 03:26:00,0.052513464991,0,0.5
2015-09-03 03:46:00,0.0870736086176,0,0.5
2015-09-03 03:51:00,0.109515260323,0,0.5
2015-09-03 04:06:00,0.00987432675045,0,0.5
2015-09-03 04:11:00,0.0749551166966,0,0.5
2015-09-03 04:16:00,0.0821364452424,0,0.5
2015-09-03 04:36:00,0.0175044883303,0,0.5
2015-09-03 04:56:00,0.0700179533214,0,0.5
2015-09-03 05:01:00,0.214542190305,0,0.5
2015-09-03 05:06:00,0.052513464991,0,0.5
2015-09-03 05:11:00,0.491023339318,0,0.5
2015-09-03 05:21:00,0.0700179533214,0,0.5
2015-09-03 05:26:00,0.174596050269,0,0.5
2015-09-03 05:31:00,0.241921005386,0,0.5
2015-09-03 05:36:00,0.18447037702,0,0.5
2015-09-03 05:41:00,0.162028725314,0,0.5
2015-09-03 05:46:00,0.114901256732,0,0.5
2015-09-03 05:51:00,0.333931777379,0,0.5
2015-09-03 05:56:00,0.446140035907,0,0.5
2015-09-03 06:01:00,0.206912028725,0,0.5
2015-09-03 06:06:00,0.551166965889,0,0.5
2015-09-03 06:11:00,0.473967684022,0,0.5
2015-09-03 06:16:00,0.950179533214,0,0.5
2015-09-03 06:21:00,0.688061041293,0,0.5
2015-09-03 06:26:00,0.543536804309,0,0.5
2015-09-03 06:36:00,0.508527827648,0,0.5
2015-09-03 06:41:00,0.625673249551,0,0.5
2015-09-03 06:46:00,0.663375224417,0,0.5
2015-09-03 06:51:00,0.513464991023,0,0.5
2015-09-03 06:56:00,0.623429084381,0,0.5
2015-09-03 07:01:00,0.421454219031,0,0.5
2015-09-03 07:06:00,0.538599640934,0,0.5
2015-09-03 07:11:00,0.802962298025,0,0.5
2015-09-03 07:16:00,0.533662477558,0,0.5
2015-09-03 07:21:00,0.456463195691,0,0.5
2015-09-03 07:26:00,0.498653500898,0,0.5
2015-09-03 07:31:00,0.947486535009,0,0.5
2015-09-03 07:36:00,0.416517055655,0,0.5
2015-09-03 07:41:00,0.236983842011,0,0.5
2015-09-03 07:46:00,0.451526032316,0,0.5
2015-09-03 07:51:00,0.481149012567,0,0.5
2015-09-03 07:56:00,0.261669658887,0,0.5
2015-09-03 08:01:00,0.289048473968,0,0.5
2015-09-03 08:11:00,0.18447037702,0,0.5
2015-09-03 08:16:00,0.461400359066,0,0.5
2015-09-03 08:21:00,0.468581687612,0,0.5
2015-09-03 08:26:00,0.416517055655,0,0.5
2015-09-03 08:31:00,0.503590664273,0,0.5
2015-09-03 08:36:00,0.333931777379,0,0.5
2015-09-03 08:41:00,0.22710951526,0,0.5
2015-09-03 08:46:00,0.688061041293,0,0.5
2015-09-03 08:56:00,0.359066427289,0,0.5
2015-09-03 09:01:00,0.171903052065,0,0.5
2015-09-03 09:06:00,0.640933572711,0,0.5
2015-09-03 09:16:00,0.306552962298,0,0.5
2015-09-03 09:21:00,0.241921005386,0,0.5
2015-09-03 09:26:00,0.376570915619,0,0.5
2015-09-03 09:31:00,0.301615798923,0,0.5
2015-09-03 09:36:00,0.336624775583,0,0.5
2015-09-03 09:41:00,0.319120287253,0,0.5
2015-09-03 09:56:00,0.259425493716,0,0.5
2015-09-03 10:01:00,0.236983842011,0,0.5
2015-09-03 10:06:00,0.311490125673,0,0.5
2015-09-03 10:11:00,0.22710951526,0,0.5
2015-09-03 10:16:00,0.137342908438,0,0.5
2015-09-03 10:26:00,0.131956912029,0,0.5
2015-09-03 10:31:00,0.20197486535,0,0.5
2015-09-03 10:36:00,0.21947935368,0,0.5
2015-09-03 10:41:00,0.157091561939,0,0.5
2015-09-03 10:46:00,0.206912028725,0,0.5
2015-09-03 10:51:00,0.0749551166966,0,0.5
2015-09-03 11:01:00,0.232046678636,0,0.5
2015-09-03 11:06:00,0.166965888689,0,0.5
2015-09-03 11:16:00,0.249551166966,0,0.5
2015-09-03 11:21:00,0.281867145422,0,0.5
2015-09-03 11:26:00,0.206912028725,0,0.5
2015-09-03 11:36:00,0.316876122083,0,0.5
2015-09-03 11:46:00,0.157091561939,0,0.5
2015-09-03 12:01:00,0.171903052065,0,0.5
2015-09-03 12:06:00,0.0749551166966,0,0.5
2015-09-03 12:11:00,0.166965888689,0,0.5
2015-09-03 12:16:00,0.127019748654,0,0.5
2015-09-03 12:21:00,0.127019748654,0,0.5
2015-09-03 12:31:00,0.174596050269,0,0.5
2015-09-03 12:41:00,0.328994614004,0,0.5
2015-09-03 12:46:00,0.162028725314,0,0.5
2015-09-03 12:51:00,0.119838420108,0,0.5
2015-09-03 12:56:00,0.18447037702,0,0.5
2015-09-03 13:01:00,0.206912028725,0,0.5
2015-09-03 13:06:00,0.0350089766607,0,0.5
2015-09-03 13:11:00,0.244165170557,0,0.5
2015-09-03 13:21:00,0.0448833034111,0,0.5
2015-09-03 13:26:00,0.0798922800718,0,0.5
2015-09-03 13:31:00,0.381508078995,0,0.5
2015-09-03 13:41:00,0.249551166966,0,0.5
2015-09-03 13:46:00,0.441202872531,0,0.5
2015-09-03 14:01:00,0.276929982047,0,0.5
2015-09-03 14:06:00,0.102333931777,0,0.5
2015-09-03 14:11:00,0.371633752244,0,0.5
2015-09-03 14:16:00,0.346499102334,0,0.5
2015-09-03 14:21:00,0.21947935368,0,0.5
2015-09-03 14:26:00,0.311490125673,0,0.5
2015-09-03 14:31:00,0.241921005386,0,0.5
2015-09-03 14:41:00,0.39407540395,0,0.5
2015-09-03 14:46:00,0.336624775583,0,0.5
2015-09-03 14:56:00,0.341561938959,0,0.5
2015-09-03 15:01:00,0.301615798923,0,0.5
2015-09-03 15:06:00,0.0973967684022,0,0.5
2015-09-03 15:11:00,0.254488330341,0,0.5
2015-09-03 15:16:00,0.324057450628,0,0.5
2015-09-03 15:21:00,0.224416517056,0,0.5
2015-09-03 15:26:00,0.232046678636,0,0.5
2015-09-03 15:31:00,0.446140035907,0,0.5
2015-09-03 15:36:00,0.481149012567,0,0.5
2015-09-03 15:41:00,0.333931777379,0,0.5
2015-09-03 15:46:00,0.441202872531,0,0.5
2015-09-03 15:51:00,0.174596050269,0,0.5
2015-09-03 15:56:00,0.18447037702,0,0.5
2015-09-03 16:06:00,0.179533213645,0,0.5
2015-09-03 16:21:00,0.324057450628,0,0.5
2015-09-03 16:31:00,0.154398563734,0,0.5
2015-09-03 16:36:00,0.328994614004,0,0.5
2015-09-03 16:41:00,0.4039497307,0,0.5
2015-09-03 16:46:00,0.513464991023,0,0.5
2015-09-03 16:56:00,0.456463195691,0,0.5
2015-09-03 17:01:00,0.389138240575,0,0.5
2015-09-03 17:06:00,0.441202872531,0,0.5
2015-09-03 17:11:00,0.20197486535,0,0.5
2015-09-03 17:16:00,0.441202872531,0,0.5
2015-09-03 17:21:00,0.171903052065,0,0.5
2015-09-03 17:26:00,0.324057450628,0,0.5
2015-09-03 17:36:00,0.259425493716,0,0.5
2015-09-03 17:41:00,0.461400359066,0,0.5
2015-09-03 17:46:00,0.174596050269,0,0.5
2015-09-03 17:51:00,0.236983842011,0,0.5
2015-09-03 17:56:00,0.157091561939,0,0.5
2015-09-03 18:01:00,0.336624775583,0,0.5
2015-09-03 18:11:00,0.346499102334,0,0.5
2015-09-03 18:16:00,0.131956912029,0,0.5
2015-09-03 18:21:00,0.149461400359,0,0.5
2015-09-03 18:31:00,0.162028725314,0,0.5
2015-09-03 18:36:00,0.127019748654,0,0.5
2015-09-03 18:41:00,0.316876122083,0,0.5
2015-09-03 18:51:00,0.137342908438,0,0.5
2015-09-03 19:06:00,0.149461400359,0,0.5
2015-09-03 19:11:00,0.299371633752,0,0.5
2015-09-03 19:21:00,0.157091561939,0,0.5
2015-09-03 19:26:00,0.154398563734,0,0.5
2015-09-03 20:02:00,0.0749551166966,0,0.5
2015-09-03 20:12:00,0.139587073609,0,0.910762925679
2015-09-03 20:17:00,0.324057450628,0,0.867822647301
2015-09-03 20:22:00,0.137342908438,0,0.864670829141
2015-09-03 20:27:00,0.249551166966,0,0.884313410817
2015-09-03 20:57:00,0.0749551166966,0,0.900625372078
2015-09-03 21:02:00,0.179533213645,0,0.892985753902
2015-09-03 21:32:00,0.0300718132855,0,0.947778959132
2015-09-03 21:42:00,0.21947935368,0,0.937656645602
2015-09-03 22:02:00,0.0175044883303,0,0.958107464871
2015-09-03 22:22:00,0.0700179533214,0,0.958728827721
2015-09-03 22:27:00,0.119838420108,0,0.961139965669
2015-09-03 23:22:00,0.144524236984,0,0.978212406069
2015-09-03 23:27:00,0.18447037702,0,0.955672350328
2015-09-03 23:32:00,0.139587073609,0,0.967862617903
2015-09-03 23:42:00,0.0399461400359,0,0.971106033682
2015-09-03 23:57:00,0.22710951526,0,0.966627343176
2015-09-04 00:02:00,0.114901256732,0,0.957230863032
2015-09-04 00:07:00,0.00987432675045,0,0.977304843791
2015-09-04 00:22:00,0.0273788150808,0,0.976580507786
2015-09-04 00:27:00,0.0448833034111,0,0.978387084792
2015-09-04 00:42:00,0.0125673249551,0,0.984830585136
2015-09-04 01:07:00,0.0574506283662,0,0.988773633361
2015-09-04 01:27:00,0.0798922800718,0,0.992306069895
2015-09-04 02:27:00,0.064631956912,0,0.994195643305
2015-09-04 02:52:00,0.052513464991,0,0.993910873175
2015-09-04 02:57:00,0.064631956912,0,0.996787094628
2015-09-04 03:12:00,0.0623877917415,0,0.99741121926
2015-09-04 03:27:00,0.114901256732,0,0.996030719293
2015-09-04 04:02:00,0.0798922800718,0,0.995118618973
2015-09-04 04:22:00,0.0623877917415,0,0.994775476121
2015-09-04 04:37:00,0.197037701975,0,0.98963236991
2015-09-04 04:52:00,0.0300718132855,0,0.99060202946
2015-09-04 05:12:00,0.22710951526,0,0.984292239018
2015-09-04 05:17:00,0.154398563734,0,0.978881088259
2015-09-04 05:22:00,0.162028725314,0,0.970220027586
2015-09-04 05:32:00,0.20960502693,0,0.954415963338
2015-09-04 05:37:00,0.162028725314,0,0.940074815196
2015-09-04 05:42:00,0.39407540395,0,0.881066633088
2015-09-04 05:47:00,0.276929982047,0,0.8200664832
2015-09-04 05:52:00,0.114901256732,0,0.800963404452
2015-09-04 05:57:00,0.254488330341,0,0.778721762359
2015-09-04 06:07:00,0.224416517056,0,0.693846872445
2015-09-04 06:12:00,0.294434470377,0,0.661417234735
2015-09-04 06:17:00,0.376570915619,0,0.546906308087
2015-09-04 06:22:00,0.306552962298,0,0.530416646196
2015-09-04 06:27:00,0.478904847397,0,0.669349448445
2015-09-04 06:32:00,0.371633752244,0,0.764150899387
2015-09-04 06:37:00,0.406642728905,0,0.769318011926
2015-09-04 06:42:00,0.39407540395,0,0.814335266892
2015-09-04 06:47:00,0.261669658887,0,0.862400294207
2015-09-04 06:52:00,0.640933572711,0,0.94633930528
2015-09-04 06:57:00,0.698384201077,0,0.987683783191
2015-09-04 07:02:00,0.254488330341,0,0.985862577929
2015-09-04 07:07:00,0.206912028725,0,0.975322821224
2015-09-04 07:12:00,0.406642728905,0,0.982134995567
2015-09-04 07:22:00,0.421454219031,0,0.978453251793
2015-09-04 07:27:00,0.548473967684,0,0.988101311809
2015-09-04 07:32:00,0.381508078995,0,0.987013553014
2015-09-04 07:37:00,0.389138240575,0,0.986790066795
2015-09-04 07:47:00,0.294434470377,0,0.988213030119
2015-09-04 07:52:00,0.276929982047,0,0.962048537273
2015-09-04 07:57:00,0.399012567325,0,0.915087789088
2015-09-04 08:02:00,0.346499102334,0,0.932723098388
2015-09-04 08:07:00,0.543536804309,0,0.97433040259
2015-09-04 08:12:00,0.324057450628,0,0.966945326714
2015-09-04 08:17:00,0.416517055655,0,0.966453349959
2015-09-04 08:22:00,0.491023339318,0,0.96027313371
2015-09-04 08:27:00,0.232046678636,0,0.939796235472
2015-09-04 08:32:00,0.306552962298,0,0.925364785232
2015-09-04 08:37:00,0.259425493716,0,0.918504022513
2015-09-04 08:52:00,0.354129263914,0,0.933036625935
2015-09-04 08:57:00,0.104578096948,0,0.865035699567
2015-09-04 09:12:00,0.316876122083,0,0.856206268727
2015-09-04 09:17:00,0.359066427289,0,0.792634319452
2015-09-04 09:32:00,0.131956912029,0,0.711411030675
2015-09-04 09:42:00,0.0973967684022,0,0.55123345449
2015-09-04 09:47:00,0.276929982047,0,0.56310762649
2015-09-04 09:52:00,0.368940754039,0,0.509997326967
2015-09-04 09:57:00,0.179533213645,0,0.55787625251
2015-09-04 10:12:00,0.174596050269,0,0.602396089449
2015-09-04 10:17:00,0.368940754039,0,0.594701133786
2015-09-04 10:22:00,0.214542190305,0,0.536619151742
2015-09-04 10:27:00,0.171903052065,0,0.612824778133
2015-09-04 10:32:00,0.276929982047,0,0.654330318675
2015-09-04 10:37:00,0.18447037702,0,0.627972057806
2015-09-04 10:42:00,0.127019748654,0,0.612824778133
2015-09-04 10:47:00,0.249551166966,0,0.626831113981
2015-09-04 10:57:00,0.149461400359,0,0.731824138026
2015-09-04 11:02:00,0.38644524237,0,0.633205798405
2015-09-04 11:07:00,0.20197486535,0,0.619273401147
2015-09-04 11:17:00,0.266606822262,0,0.670414182894
2015-09-04 11:22:00,0.421454219031,0,0.564769887832
2015-09-04 11:27:00,0.139587073609,0,0.581795898195
2015-09-04 11:32:00,0.301615798923,0,0.56880198924
2015-09-04 11:37:00,0.206912028725,0,0.556923980618
2015-09-04 11:42:00,0.254488330341,0,0.511199713882
2015-09-04 11:47:00,0.21947935368,0,0.504916369015
2015-09-04 11:52:00,0.259425493716,0,0.553856649574
2015-09-04 11:57:00,0.336624775583,0,0.527297528379
2015-09-04 12:12:00,0.166965888689,0,0.508554343698
2015-09-04 12:27:00,0.104578096948,0,0.57778843093
2015-09-04 12:32:00,0.22710951526,0,0.676285992732
2015-09-04 12:37:00,0.289048473968,0,0.601232665105
2015-09-04 12:42:00,0.109515260323,0,0.696591821331
2015-09-04 12:52:00,0.284111310592,0,0.659429676892
2015-09-04 12:57:00,0.438958707361,0,0.564769887832
2015-09-04 13:02:00,0.0973967684022,0,0.628200112162
2015-09-04 13:12:00,0.299371633752,0,0.60773596755
2015-09-04 13:17:00,0.306552962298,0,0.623172658474
2015-09-04 13:27:00,0.0924596050269,0,0.660534426608
2015-09-04 13:37:00,0.368940754039,0,0.523426316815
2015-09-04 13:47:00,0.341561938959,0,0.537846660097
2015-09-04 13:52:00,0.249551166966,0,0.544635646513
2015-09-04 13:57:00,0.206912028725,0,0.586613766227
2015-09-04 14:02:00,0.139587073609,0,0.524112959458
2015-09-04 14:07:00,0.289048473968,0,0.541330591734
2015-09-04 14:12:00,0.18447037702,0,0.503340998649
2015-09-04 14:17:00,0.513464991023,0,0.589484858658
2015-09-04 14:22:00,0.324057450628,0,0.596926925188
2015-09-04 14:27:00,0.371633752244,0,0.709288862893
2015-09-04 14:32:00,0.139587073609,0,0.617908366138
2015-09-04 14:37:00,0.144524236984,0,0.533506010804
2015-09-04 14:42:00,0.197037701975,0,0.510588272777
2015-09-04 14:47:00,0.389138240575,0,0.589484858658
2015-09-04 14:52:00,0.104578096948,0,0.574506263869
2015-09-04 15:02:00,0.162028725314,0,0.519411075021
2015-09-04 15:17:00,0.157091561939,0,0.507449803401
2015-09-04 15:22:00,0.276929982047,0,0.595032721266
2015-09-04 15:32:00,0.289048473968,0,0.609828420825
2015-09-04 15:42:00,0.174596050269,0,0.68962149689
2015-09-04 15:47:00,0.261669658887,0,0.640952008047
2015-09-04 15:52:00,0.299371633752,0,0.575866142085
2015-09-04 16:02:00,0.306552962298,0,0.528431166326
2015-09-04 16:12:00,0.162028725314,0,0.625585633756
2015-09-04 16:17:00,0.197037701975,0,0.586624609351
2015-09-04 16:27:00,0.166965888689,0,0.584516197528
2015-09-04 16:32:00,0.236983842011,0,0.550101597681
2015-09-04 16:42:00,0.236983842011,0,0.567372791014
2015-09-04 16:47:00,0.1921005386,0,0.608695624255
2015-09-04 16:52:00,0.224416517056,0,0.587582157083
2015-09-04 16:57:00,0.316876122083,0,0.563889013103
2015-09-04 17:02:00,0.206912028725,0,0.603397187777
2015-09-04 17:07:00,0.241921005386,0,0.630422023966
2015-09-04 17:12:00,0.648114901257,0,0.579127588455
2015-09-04 17:17:00,0.341561938959,0,0.639838040574
2015-09-04 17:22:00,0.516157989228,0,0.770549099242
2015-09-04 17:27:00,0.284111310592,0,0.785906170095
2015-09-04 17:32:00,0.289048473968,0,0.802155900335
2015-09-04 17:37:00,0.271992818671,0,0.825592369462
2015-09-04 17:42:00,0.284111310592,0,0.841900854904
2015-09-04 17:47:00,0.162028725314,0,0.797471992101
2015-09-04 18:02:00,0.224416517056,0,0.802839148076
2015-09-04 18:07:00,0.249551166966,0,0.805151489835
2015-09-04 18:12:00,0.122082585278,0,0.611703672277
2015-09-04 18:17:00,0.284111310592,0,0.587379850606
2015-09-04 18:22:00,0.189407540395,0,0.554575396094
2015-09-04 18:27:00,0.18447037702,0,0.597318423374
2015-09-04 18:32:00,0.214542190305,0,0.628564267237
2015-09-04 18:37:00,0.336624775583,0,0.601500196534
2015-09-04 18:42:00,0.5960502693,0,0.533701519332
2015-09-04 18:47:00,0.324057450628,0,0.603386456928
2015-09-04 18:52:00,0.451526032316,0,0.695317380857
2015-09-04 18:57:00,0.109515260323,0,0.639653999921
2015-09-04 19:02:00,0.171903052065,0,0.659876222632
2015-09-04 19:07:00,0.104578096948,0,0.585272326478
2015-09-04 19:12:00,0.1921005386,0,0.586422193477
2015-09-04 19:22:00,0.0924596050269,0,0.546779717642
2015-09-04 19:27:00,0.0623877917415,0,0.519618137873
2015-09-04 19:32:00,0.189407540395,0,0.583365124115
2015-09-04 19:42:00,0.104578096948,0,0.773084976178
2015-09-04 19:47:00,0.0700179533214,0,0.847886558886
2015-09-04 19:57:00,0.254488330341,0,0.893124494569
2015-09-04 20:02:00,0.179533213645,0,0.878312869353
2015-09-04 20:12:00,0.149461400359,0,0.883209499131
2015-09-04 20:17:00,0.1921005386,0,0.863303309601
2015-09-04 20:23:00,0.0973967684022,0,0.884746509624
2015-09-04 20:28:00,0.206912028725,0,0.858508330405
2015-09-04 20:33:00,0.149461400359,0,0.836019683994
2015-09-04 20:38:00,0.281867145422,0,0.809733983986
2015-09-04 20:48:00,0.0798922800718,0,0.816993322428
2015-09-04 20:53:00,0.157091561939,0,0.790614256333
2015-09-04 21:03:00,0.144524236984,0,0.823568050556
2015-09-04 21:13:00,0.154398563734,0,0.830612913372
2015-09-04 21:18:00,0.232046678636,0,0.806781389785
2015-09-04 21:33:00,0.122082585278,0,0.827113347747
2015-09-04 21:38:00,0.189407540395,0,0.800105381982
2015-09-04 21:53:00,0.127019748654,0,0.823695454896
2015-09-04 22:08:00,0.0399461400359,0,0.853035811271
2015-09-04 22:13:00,0.0821364452424,0,0.897672348142
2015-09-04 22:23:00,0.166965888689,0,0.879599657249
2015-09-04 22:34:00,0.162028725314,0,0.878511463284
2015-09-04 22:41:00,0.0350089766607,0,0.901053941257
2015-09-08 10:44:00,0.162028725314,0,0.899590102421
2015-09-08 10:49:00,0.064631956912,0,0.928220557249
2015-09-08 10:59:00,0.1921005386,0,0.917117821493
2015-09-08 11:04:00,0.281867145422,0,0.900539085456
2015-09-08 11:09:00,0.206912028725,0,0.884363611803
2015-09-08 11:14:00,0.236983842011,0,0.836748198932
2015-09-08 11:19:00,0.0924596050269,0,0.833944122611
2015-09-08 11:29:00,0.336624775583,0,0.783469318031
2015-09-08 11:34:00,0.376570915619,0,0.708455131461
2015-09-08 11:39:00,0.0300718132855,0,0.710308820371
2015-09-08 11:49:00,0.131956912029,0,0.721478262481
2015-09-08 11:59:00,0.0749551166966,0,0.717667702655
2015-09-08 12:14:00,0.244165170557,0,0.6980765993
2015-09-08 12:19:00,0.166965888689,0,0.740465348245
2015-09-08 12:24:00,0.157091561939,0,0.757840193565
2015-09-08 12:27:00,0.139587073609,0,0.789906067315
2015-09-08 12:32:00,0.259425493716,0,0.733404046121
2015-09-08 12:36:00,0.20960502693,0,0.777066676038
2015-09-08 12:46:00,0.4039497307,0,0.768014405522
2015-09-08 12:51:00,0.301615798923,0,0.66813769584
2015-09-08 12:56:00,0.0448833034111,0,0.678914799873
2015-09-08 13:01:00,0.232046678636,0,0.608573247937
2015-09-08 13:06:00,0.399012567325,0,0.535554114643
2015-09-08 13:16:00,0.271992818671,0,0.514822696976
2015-09-08 13:26:00,0.0623877917415,0,0.530614659479
2015-09-08 13:36:00,0.109515260323,0,0.544987616095
2015-09-08 13:41:00,0.154398563734,0,0.594606199208
2015-09-08 13:46:00,0.271992818671,0,0.565262220932
2015-09-08 13:51:00,0.0798922800718,0,0.710325788763
2015-09-08 13:56:00,0.174596050269,0,0.760281535709
2015-09-08 14:00:00,0.224416517056,0,0.688334630657
2015-09-08 14:06:00,0.224416517056,0,0.691574561821
2015-09-08 14:11:00,0.461400359066,0,0.664666589289
2015-09-08 14:21:00,0.052513464991,0,0.754708686451
2015-09-08 14:31:00,0.20960502693,0,0.69574533827
2015-09-08 14:36:00,0.224416517056,0,0.645766458819
2015-09-08 14:41:00,0.241921005386,0,0.60587353725
2015-09-08 14:51:00,0.0749551166966,0,0.693473479179
2015-09-08 14:56:00,0.197037701975,0,0.642344462396
2015-09-08 15:01:00,0.189407540395,0,0.635669215476
2015-09-08 15:06:00,0.20197486535,0,0.645766458819
2015-09-08 15:11:00,0.354129263914,0,0.586208611178
2015-09-08 15:16:00,0.1921005386,0,0.706060613059
2015-09-08 15:26:00,0.22710951526,0,0.629972824095
2015-09-08 15:29:00,0.122082585278,0,0.668986763258
2015-09-08 15:41:00,0.249551166966,0,0.657947086907
2015-09-08 16:15:00,0.306552962298,0,0.628952562248
2015-09-08 16:31:00,0.127019748654,0,0.605041825939
2015-09-08 16:36:00,0.154398563734,0,0.624657633114
2015-09-08 16:41:00,0.0924596050269,0,0.668006853337
2015-09-08 16:46:00,0.316876122083,0,0.616434330775
2015-09-08 16:56:00,0.0821364452424,0,0.733515473212
2015-09-08 17:06:00,0.346499102334,0,0.669182606681
2015-09-08 17:11:00,0.311490125673,0,0.63160333947
2015-09-08 17:21:00,0.236983842011,0,0.578405491802
2015-09-08 17:26:00,0.157091561939,0,0.621374870442
2015-09-08 17:31:00,0.261669658887,0,0.641739381761
2015-09-08 17:36:00,0.368940754039,0,0.528680503488
2015-09-08 17:46:00,0.284111310592,0,0.533535173324
2015-09-08 17:51:00,0.18447037702,0,0.577263188534
2015-09-08 17:56:00,0.224416517056,0,0.533320428488
2015-09-08 18:26:00,0.0798922800718,0,0.532246560051
2015-09-08 18:31:00,0.354129263914,0,0.535896708519
2015-09-08 18:36:00,0.214542190305,0,0.510601854544
2015-09-08 18:41:00,0.122082585278,0,0.56547482328
2015-09-08 18:46:00,0.0448833034111,0,0.617877318283
2015-09-08 18:56:00,0.052513464991,0,0.70940105115
2015-09-08 19:01:00,0.249551166966,0,0.756574004949
2015-09-08 19:06:00,0.0574506283662,0,0.833506984384
2015-09-08 19:16:00,0.333931777379,0,0.784720637612
2015-09-08 19:26:00,0.109515260323,0,0.822912806395
2015-09-08 19:36:00,0.119838420108,0,0.810149259169
2015-09-08 19:41:00,0.197037701975,0,0.857129306007
2015-09-08 19:46:00,0.064631956912,0,0.893971938506
2015-09-08 19:51:00,0.0700179533214,0,0.90500230879
2015-09-08 20:06:00,0.122082585278,0,0.888327449828
2015-09-08 20:11:00,0.119838420108,0,0.872158496959
2015-09-08 20:26:00,0.0700179533214,0,0.911928575327